                         Program Version 5.0.3 -  RELEASE  -
|  1> %pal nprocs 1 end
|  2>
|  3> !PBE def2-TZVP OPT UNO
|  4> !SLOWCONV KDIIS
|  5>
|  6> %geom maxiter 300 end
|  7>
|  8> *xyzfile 0 5 0.xyz                           ****END OF INPUT****
 Total Charge           Charge          ....    0
 Multiplicity           Mult            ....    5
 Number of Electrons    NEL             ....  254
FINAL SINGLE POINT ENERGY     -2893.406624409998
FINAL SINGLE POINT ENERGY     -2893.407182283855
FINAL SINGLE POINT ENERGY     -2893.407900410246
FINAL SINGLE POINT ENERGY     -2893.407990390471
FINAL SINGLE POINT ENERGY     -2893.408068041538
FINAL SINGLE POINT ENERGY     -2893.408114714659
FINAL SINGLE POINT ENERGY     -2893.408146846793
FINAL SINGLE POINT ENERGY     -2893.408195333957
FINAL SINGLE POINT ENERGY     -2893.408209074221
FINAL SINGLE POINT ENERGY     -2893.408212148417
FINAL SINGLE POINT ENERGY     -2893.408213126666
                    ***********************HURRAY********************

CARTESIAN COORDINATES (ANGSTROEM)
---------------------------------
  Au     6.540330    7.326721    4.145086
  Au     9.087409    7.211841    3.177305
  Au     8.934277    6.859719    5.890226
  Au     9.292394    9.348486    7.130298
  Au     8.505809    9.570835    4.445429
  Au     7.198131   11.168757    6.188074
  Au     5.195621    7.681754    8.536558
  Au     7.829330    7.111059    8.341089
  Au     6.942459    9.862786    8.804202
  Au     4.777284   10.400561    7.106101
  Au     2.773832    8.613747    7.655246
  Au     4.426366    7.802938    5.642007
  Fe     6.794667    8.582143    6.423171

 Multiplicity           Mult            ....    5
 Number of Electrons    NEL             ....  254
 Basis Dimension        Dim             ....  525

ORBITAL ENERGIES
----------------
                 SPIN UP ORBITALS
  NO   OCC          E(Eh)            E(eV)
   0   1.0000    -254.768990     -6932.6167
   1   1.0000     -29.611272      -805.7637
   2   1.0000     -25.549118      -695.2268
   3   1.0000     -25.545782      -695.1361
   4   1.0000     -25.543320      -695.0691
   5   1.0000      -4.029997      -109.6618
   6   1.0000      -4.029978      -109.6613
   7   1.0000      -4.028194      -109.6127
   8   1.0000      -4.027901      -109.6047
   9   1.0000      -4.024529      -109.5130
  10   1.0000      -4.024472      -109.5115
  11   1.0000      -4.023166      -109.4759
  12   1.0000      -4.023118      -109.4746
  13   1.0000      -4.023078      -109.4735
  14   1.0000      -4.023042      -109.4725
  15   1.0000      -4.019245      -109.3692
  16   1.0000      -4.019243      -109.3692
  17   1.0000      -3.390294       -92.2546
  18   1.0000      -2.249703       -61.2175
  19   1.0000      -2.246013       -61.1171
  20   1.0000      -2.246003       -61.1168
  21   1.0000      -2.245994       -61.1166
  22   1.0000      -2.245896       -61.1139
  23   1.0000      -2.244474       -61.0752
  24   1.0000      -2.242907       -61.0326
  25   1.0000      -2.241807       -61.0027
  26   1.0000      -2.241367       -60.9907
  27   1.0000      -2.240965       -60.9798
  28   1.0000      -2.240852       -60.9767
  29   1.0000      -2.240700       -60.9726
  30   1.0000      -2.239492       -60.9397
  31   1.0000      -2.239340       -60.9355
  32   1.0000      -2.238946       -60.9248
  33   1.0000      -2.238385       -60.9095
  34   1.0000      -2.237121       -60.8752
  35   1.0000      -2.236454       -60.8570
  36   1.0000      -2.236442       -60.8567
  37   1.0000      -2.236129       -60.8482
  38   1.0000      -2.235940       -60.8430
  39   1.0000      -2.235322       -60.8262
  40   1.0000      -2.235230       -60.8237
  41   1.0000      -2.235124       -60.8208
  42   1.0000      -2.234502       -60.8039
  43   1.0000      -2.234393       -60.8009
  44   1.0000      -2.233341       -60.7723
  45   1.0000      -2.232819       -60.7581
  46   1.0000      -2.231238       -60.7151
  47   1.0000      -2.231164       -60.7131
  48   1.0000      -2.231053       -60.7100
  49   1.0000      -2.230986       -60.7082
  50   1.0000      -2.230344       -60.6908
  51   1.0000      -2.230332       -60.6904
  52   1.0000      -2.229638       -60.6715
  53   1.0000      -2.229604       -60.6706
  54   1.0000      -2.209950       -60.1358
  55   1.0000      -2.203237       -59.9531
  56   1.0000      -2.197262       -59.7906
  57   1.0000      -0.429370       -11.6837
  58   1.0000      -0.388234       -10.5644
  59   1.0000      -0.386584       -10.5195
  60   1.0000      -0.382417       -10.4061
  61   1.0000      -0.376329       -10.2404
  62   1.0000      -0.374711       -10.1964
  63   1.0000      -0.372996       -10.1497
  64   1.0000      -0.366838        -9.9822
  65   1.0000      -0.354628        -9.6499
  66   1.0000      -0.353520        -9.6198
  67   1.0000      -0.345795        -9.4096
  68   1.0000      -0.343866        -9.3571
  69   1.0000      -0.342941        -9.3319
  70   1.0000      -0.339584        -9.2406
  71   1.0000      -0.337525        -9.1845
  72   1.0000      -0.336084        -9.1453
  73   1.0000      -0.335412        -9.1270
  74   1.0000      -0.331529        -9.0214
  75   1.0000      -0.331403        -9.0179
  76   1.0000      -0.328825        -8.9478
  77   1.0000      -0.324864        -8.8400
  78   1.0000      -0.324556        -8.8316
  79   1.0000      -0.322708        -8.7813
  80   1.0000      -0.320862        -8.7311
  81   1.0000      -0.319293        -8.6884
  82   1.0000      -0.312565        -8.5053
  83   1.0000      -0.307751        -8.3743
  84   1.0000      -0.302589        -8.2339
  85   1.0000      -0.299017        -8.1367
  86   1.0000      -0.298874        -8.1328
  87   1.0000      -0.295649        -8.0450
  88   1.0000      -0.290643        -7.9088
  89   1.0000      -0.290405        -7.9023
  90   1.0000      -0.289980        -7.8908
  91   1.0000      -0.289398        -7.8749
  92   1.0000      -0.286224        -7.7886
  93   1.0000      -0.282369        -7.6837
  94   1.0000      -0.282065        -7.6754
  95   1.0000      -0.281675        -7.6648
  96   1.0000      -0.281412        -7.6576
  97   1.0000      -0.277565        -7.5529
  98   1.0000      -0.277521        -7.5517
  99   1.0000      -0.271401        -7.3852
 100   1.0000      -0.270875        -7.3709
 101   1.0000      -0.269008        -7.3201
 102   1.0000      -0.265891        -7.2353
 103   1.0000      -0.265139        -7.2148
 104   1.0000      -0.264552        -7.1988
 105   1.0000      -0.263361        -7.1664
 106   1.0000      -0.261227        -7.1083
 107   1.0000      -0.261009        -7.1024
 108   1.0000      -0.260703        -7.0941
 109   1.0000      -0.260520        -7.0891
 110   1.0000      -0.259020        -7.0483
 111   1.0000      -0.257645        -7.0109
 112   1.0000      -0.257166        -6.9978
 113   1.0000      -0.256444        -6.9782
 114   1.0000      -0.255888        -6.9631
 115   1.0000      -0.255525        -6.9532
 116   1.0000      -0.250902        -6.8274
 117   1.0000      -0.249820        -6.7980
 118   1.0000      -0.248906        -6.7731
 119   1.0000      -0.246805        -6.7159
 120   1.0000      -0.246028        -6.6948
 121   1.0000      -0.242100        -6.5879
 122   1.0000      -0.239803        -6.5254
 123   1.0000      -0.236183        -6.4269
 124   1.0000      -0.234510        -6.3814
 125   1.0000      -0.233946        -6.3660
 126   1.0000      -0.217993        -5.9319
 127   1.0000      -0.203810        -5.5460
 128   1.0000      -0.183539        -4.9944
 129   0.0000      -0.169329        -4.6077
 130   0.0000      -0.138195        -3.7605
 131   0.0000      -0.137504        -3.7417
 132   0.0000      -0.133477        -3.6321
 133   0.0000      -0.114636        -3.1194

                 SPIN DOWN ORBITALS
  NO   OCC          E(Eh)            E(eV)
   0   1.0000    -254.768253     -6932.5966
   1   1.0000     -29.549958      -804.0952
   2   1.0000     -25.500742      -693.9105
   3   1.0000     -25.500009      -693.8905
   4   1.0000     -25.498528      -693.8502
   5   1.0000      -4.029424      -109.6462
   6   1.0000      -4.029402      -109.6456
   7   1.0000      -4.026503      -109.5667
   8   1.0000      -4.026209      -109.5587
   9   1.0000      -4.024172      -109.5033
  10   1.0000      -4.024115      -109.5017
  11   1.0000      -4.022371      -109.4543
  12   1.0000      -4.022311      -109.4526
  13   1.0000      -4.022286      -109.4520
  14   1.0000      -4.022242      -109.4508
  15   1.0000      -4.018976      -109.3619
  16   1.0000      -4.018975      -109.3619
  17   1.0000      -3.252101       -88.4942
  18   1.0000      -2.247719       -61.1635
  19   1.0000      -2.245231       -61.0958
  20   1.0000      -2.245150       -61.0936
  21   1.0000      -2.244771       -61.0833
  22   1.0000      -2.244705       -61.0815
  23   1.0000      -2.242246       -61.0146
  24   1.0000      -2.240900       -60.9780
  25   1.0000      -2.240380       -60.9638
  26   1.0000      -2.240121       -60.9568
  27   1.0000      -2.240083       -60.9557
  28   1.0000      -2.239993       -60.9533
  29   1.0000      -2.239903       -60.9509
  30   1.0000      -2.238689       -60.9178
  31   1.0000      -2.238513       -60.9130
  32   1.0000      -2.238481       -60.9122
  33   1.0000      -2.238146       -60.9030
  34   1.0000      -2.236863       -60.8681
  35   1.0000      -2.236063       -60.8464
  36   1.0000      -2.235786       -60.8388
  37   1.0000      -2.235693       -60.8363
  38   1.0000      -2.235144       -60.8214
  39   1.0000      -2.234692       -60.8091
  40   1.0000      -2.234029       -60.7910
  41   1.0000      -2.233944       -60.7887
  42   1.0000      -2.233754       -60.7835
  43   1.0000      -2.233659       -60.7810
  44   1.0000      -2.232086       -60.7382
  45   1.0000      -2.231583       -60.7245
  46   1.0000      -2.230889       -60.7056
  47   1.0000      -2.230819       -60.7037
  48   1.0000      -2.230674       -60.6997
  49   1.0000      -2.230607       -60.6979
  50   1.0000      -2.229928       -60.6794
  51   1.0000      -2.229913       -60.6790
  52   1.0000      -2.229423       -60.6657
  53   1.0000      -2.229383       -60.6646
  54   1.0000      -2.069393       -56.3110
  55   1.0000      -2.069153       -56.3045
  56   1.0000      -2.066309       -56.2271
  57   1.0000      -0.424207       -11.5433
  58   1.0000      -0.386074       -10.5056
  59   1.0000      -0.384846       -10.4722
  60   1.0000      -0.376260       -10.2386
  61   1.0000      -0.368347       -10.0232
  62   1.0000      -0.365797        -9.9538
  63   1.0000      -0.365542        -9.9469
  64   1.0000      -0.359134        -9.7725
  65   1.0000      -0.349586        -9.5127
  66   1.0000      -0.346881        -9.4391
  67   1.0000      -0.344050        -9.3621
  68   1.0000      -0.341193        -9.2843
  69   1.0000      -0.338534        -9.2120
  70   1.0000      -0.335445        -9.1279
  71   1.0000      -0.334116        -9.0918
  72   1.0000      -0.332123        -9.0375
  73   1.0000      -0.328934        -8.9507
  74   1.0000      -0.328542        -8.9401
  75   1.0000      -0.325816        -8.8659
  76   1.0000      -0.323875        -8.8131
  77   1.0000      -0.323127        -8.7927
  78   1.0000      -0.321603        -8.7513
  79   1.0000      -0.317977        -8.6526
  80   1.0000      -0.310284        -8.4433
  81   1.0000      -0.310029        -8.4363
  82   1.0000      -0.305065        -8.3013
  83   1.0000      -0.302633        -8.2351
  84   1.0000      -0.299578        -8.1519
  85   1.0000      -0.298531        -8.1234
  86   1.0000      -0.294057        -8.0017
  87   1.0000      -0.291790        -7.9400
  88   1.0000      -0.289053        -7.8655
  89   1.0000      -0.288238        -7.8434
  90   1.0000      -0.286518        -7.7966
  91   1.0000      -0.286089        -7.7849
  92   1.0000      -0.284985        -7.7548
  93   1.0000      -0.279486        -7.6052
  94   1.0000      -0.276858        -7.5337
  95   1.0000      -0.276790        -7.5319
  96   1.0000      -0.275055        -7.4846
  97   1.0000      -0.272821        -7.4238
  98   1.0000      -0.271317        -7.3829
  99   1.0000      -0.270188        -7.3522
 100   1.0000      -0.269088        -7.3223
 101   1.0000      -0.263811        -7.1787
 102   1.0000      -0.263427        -7.1682
 103   1.0000      -0.262892        -7.1536
 104   1.0000      -0.261723        -7.1219
 105   1.0000      -0.260568        -7.0904
 106   1.0000      -0.259862        -7.0712
 107   1.0000      -0.258377        -7.0308
 108   1.0000      -0.258104        -7.0234
 109   1.0000      -0.257563        -7.0087
 110   1.0000      -0.255842        -6.9618
 111   1.0000      -0.255041        -6.9400
 112   1.0000      -0.254116        -6.9148
 113   1.0000      -0.248917        -6.7734
 114   1.0000      -0.247391        -6.7318
 115   1.0000      -0.245928        -6.6920
 116   1.0000      -0.245894        -6.6911
 117   1.0000      -0.242761        -6.6059
 118   1.0000      -0.236152        -6.4260
 119   1.0000      -0.235483        -6.4078
 120   1.0000      -0.232808        -6.3350
 121   1.0000      -0.223520        -6.0823
 122   1.0000      -0.209792        -5.7087
 123   1.0000      -0.199609        -5.4316
 124   1.0000      -0.194989        -5.3059
 125   0.0000      -0.166523        -4.5313
 126   0.0000      -0.164626        -4.4797
 127   0.0000      -0.164400        -4.4735
 128   0.0000      -0.159382        -4.3370
 129   0.0000      -0.155676        -4.2362

MULLIKEN ATOMIC CHARGES AND SPIN POPULATIONS
--------------------------------------------
   0 Au:    0.047330    0.084028
   1 Au:    0.394947    0.070239
   2 Au:    0.019341    0.151391
   3 Au:    0.234006   -0.040263
   4 Au:    0.019853    0.152819
   5 Au:    0.343918   -0.000855
   6 Au:    0.019593    0.152417
   7 Au:    0.343713   -0.000982
   8 Au:    0.233927   -0.040035
   9 Au:    0.019554    0.151342
  10 Au:    0.394939    0.070272
  11 Au:    0.046337    0.084342
  12 Fe:   -2.117458    3.165284
Sum of atomic charges         :   -0.0000000

LOEWDIN ATOMIC CHARGES AND SPIN POPULATIONS
-------------------------------------------
   0 Au:    0.045802    0.082857
   1 Au:    0.093458    0.073503
   2 Au:   -0.019872    0.093881
   3 Au:    0.057319   -0.010141
   4 Au:   -0.019324    0.094922
   5 Au:    0.106853    0.016410
   6 Au:   -0.019711    0.094695
   7 Au:    0.106666    0.016286
   8 Au:    0.057048   -0.009986
   9 Au:   -0.020008    0.093933
  10 Au:    0.093508    0.073514
  11 Au:    0.045935    0.083056
  12 Fe:   -0.527674    3.297070

  Mayer bond orders larger than 0.100000
B(  0-Au,  1-Au) :   0.3558 B(  0-Au,  2-Au) :   0.1469 B(  0-Au,  4-Au) :   0.1467
B(  0-Au, 11-Au) :   0.4632 B(  0-Au, 12-Fe) :   0.5991 B(  1-Au,  2-Au) :   0.3386
B(  1-Au,  4-Au) :   0.3383 B(  2-Au,  3-Au) :   0.2346 B(  2-Au,  4-Au) :   0.1387
B(  2-Au,  7-Au) :   0.3356 B(  2-Au, 12-Fe) :   0.4723 B(  3-Au,  4-Au) :   0.2324
B(  3-Au,  5-Au) :   0.1298 B(  3-Au,  7-Au) :   0.1284 B(  3-Au,  8-Au) :   0.1317
B(  3-Au, 12-Fe) :   0.5576 B(  4-Au,  5-Au) :   0.3353 B(  4-Au, 12-Fe) :   0.4736
B(  5-Au,  8-Au) :   0.1282 B(  5-Au,  9-Au) :   0.3356 B(  5-Au, 12-Fe) :   0.5042
B(  6-Au,  7-Au) :   0.3357 B(  6-Au,  8-Au) :   0.2326 B(  6-Au,  9-Au) :   0.1390
B(  6-Au, 10-Au) :   0.3384 B(  6-Au, 11-Au) :   0.1469 B(  6-Au, 12-Fe) :   0.4723
B(  7-Au,  8-Au) :   0.1308 B(  7-Au, 12-Fe) :   0.5030 B(  8-Au,  9-Au) :   0.2348
B(  8-Au, 12-Fe) :   0.5571 B(  9-Au, 10-Au) :   0.3386 B(  9-Au, 11-Au) :   0.1463
B(  9-Au, 12-Fe) :   0.4710 B( 10-Au, 11-Au) :   0.3556 B( 11-Au, 12-Fe) :   0.5999

FINAL SINGLE POINT ENERGY     -2893.408213729503

DIPOLE MOMENT
-------------
                                X             Y             Z
Electronic contribution:     -0.06152      -0.05212      -0.00462
Nuclear contribution   :      0.10390       0.08408       0.05212
                        -----------------------------------------
Total Dipole Moment    :      0.04238       0.03196       0.04750
                        -----------------------------------------
Magnitude (a.u.)       :      0.07123
Magnitude (Debye)      :      0.18105

Rotational constants in cm-1:     0.001767     0.001060     0.000968
Rotational constants in MHz :    52.958543    31.782223    29.009440

                             ****ORCA TERMINATED NORMALLY****
TOTAL RUN TIME: 0 days 1 hours 59 minutes 44 seconds 752 msec
