                         Program Version 5.0.3 -  RELEASE  -
|  1> !CASSCF def2-TZVP def2-TZVP/C
|  2> !MOREAD RIJCOSX
|  3> %maxcore 6000
|  4> %moinp "pbe.qro"
|  5> %pal nprocs 2 end
|  6>
|  7> %casscf
|  8>  mult 5,3
|  9>  bweight 1,1
| 10>  nroots 5,45
| 11>  nel 6
| 12>  norb 5
| 13> end
| 14>
| 15>
| 16> *xyzfile 0 5 pbe.xyz
| 17>
| 18>
| 19>                          ****END OF INPUT****

CARTESIAN COORDINATES (ANGSTROEM)
---------------------------------
  Au     7.154456    5.719346   10.201053
  Au     5.411668    6.525784    8.158818
  Au     8.060921    6.764405    7.208150
  Au     6.855018    8.619266    9.161391
  Au     7.100215    4.182979    7.902725
  Au    11.919587    9.210122    9.488346
  Au    11.613728    6.402348    9.643917
  Au     7.827984    7.805347   11.804689
  Au    10.527083    8.175639   11.644060
  Au    10.383421    8.101746    7.457311
  Au     9.608414    4.802014    8.831469
  Au     9.182435    9.905404    9.728240
  Fe     9.154651    7.297531    9.568339

 Total Charge           Charge          ....    0
 Multiplicity           Mult            ....    5
 Number of Electrons    NEL             ....  254
 Basis Dimension        Dim             ....  525

ORBITAL ENERGIES
----------------

  NO   OCC          E(Eh)            E(eV)
   0   2.0000    -261.391864     -7112.8342
   1   2.0000     -31.957227      -869.6004
   2   2.0000     -27.437338      -746.6079
   3   2.0000     -27.437108      -746.6017
   4   2.0000     -27.436302      -746.5797
   5   2.0000      -4.731404      -128.7480
   6   2.0000      -4.724449      -128.5588
   7   2.0000      -4.722938      -128.5177
   8   2.0000      -4.722638      -128.5095
   9   2.0000      -4.722552      -128.5072
  10   2.0000      -4.719981      -128.4372
  11   2.0000      -4.713591      -128.2633
  12   2.0000      -4.711381      -128.2032
  13   2.0000      -4.708333      -128.1202
  14   2.0000      -4.704473      -128.0152
  15   2.0000      -4.697361      -127.8217
  16   2.0000      -4.696794      -127.8063
  17   2.0000      -4.191568      -114.0584
  18   2.0000      -2.774472       -75.4972
  19   2.0000      -2.772179       -75.4348
  20   2.0000      -2.771119       -75.4060
  21   2.0000      -2.769112       -75.3514
  22   2.0000      -2.767926       -75.3191
  23   2.0000      -2.766313       -75.2752
  24   2.0000      -2.764116       -75.2154
  25   2.0000      -2.762512       -75.1718
  26   2.0000      -2.762126       -75.1613
  27   2.0000      -2.761457       -75.1431
  28   2.0000      -2.760683       -75.1220
  29   2.0000      -2.759675       -75.0946
  30   2.0000      -2.758480       -75.0621
  31   2.0000      -2.758089       -75.0514
  32   2.0000      -2.757292       -75.0297
  33   2.0000      -2.757222       -75.0278
  34   2.0000      -2.756616       -75.0113
  35   2.0000      -2.755953       -74.9933
  36   2.0000      -2.755498       -74.9809
  37   2.0000      -2.754858       -74.9635
  38   2.0000      -2.752698       -74.9047
  39   2.0000      -2.751091       -74.8610
  40   2.0000      -2.749131       -74.8077
  41   2.0000      -2.748447       -74.7891
  42   2.0000      -2.745947       -74.7210
  43   2.0000      -2.745517       -74.7093
  44   2.0000      -2.745468       -74.7080
  45   2.0000      -2.743567       -74.6563
  46   2.0000      -2.742827       -74.6361
  47   2.0000      -2.740653       -74.5770
  48   2.0000      -2.740138       -74.5629
  49   2.0000      -2.739301       -74.5402
  50   2.0000      -2.737887       -74.5017
  51   2.0000      -2.733914       -74.3936
  52   2.0000      -2.733797       -74.3904
  53   2.0000      -2.732171       -74.3461
  54   2.0000      -2.731961       -74.3404
  55   2.0000      -2.731910       -74.3391
  56   2.0000      -2.730543       -74.3019
  57   2.0000      -0.588269       -16.0076
  58   2.0000      -0.563588       -15.3360
  59   2.0000      -0.556822       -15.1519
  60   2.0000      -0.552650       -15.0384
  61   2.0000      -0.551408       -15.0046
  62   2.0000      -0.548797       -14.9335
  63   2.0000      -0.546750       -14.8778
  64   2.0000      -0.545684       -14.8488
  65   2.0000      -0.544438       -14.8149
  66   2.0000      -0.541510       -14.7352
  67   2.0000      -0.537010       -14.6128
  68   2.0000      -0.534822       -14.5532
  69   2.0000      -0.532240       -14.4830
  70   2.0000      -0.529414       -14.4061
  71   2.0000      -0.526152       -14.3173
  72   2.0000      -0.523752       -14.2520
  73   2.0000      -0.522678       -14.2228
  74   2.0000      -0.520472       -14.1628
  75   2.0000      -0.518384       -14.1059
  76   2.0000      -0.511167       -13.9096
  77   2.0000      -0.509709       -13.8699
  78   2.0000      -0.508323       -13.8322
  79   2.0000      -0.505343       -13.7511
  80   2.0000      -0.498962       -13.5774
  81   2.0000      -0.496886       -13.5210
  82   2.0000      -0.492580       -13.4038
  83   2.0000      -0.491535       -13.3754
  84   2.0000      -0.486451       -13.2370
  85   2.0000      -0.484526       -13.1846
  86   2.0000      -0.481464       -13.1013
  87   2.0000      -0.478203       -13.0126
  88   2.0000      -0.475426       -12.9370
  89   2.0000      -0.472359       -12.8535
  90   2.0000      -0.469434       -12.7740
  91   2.0000      -0.467641       -12.7252
  92   2.0000      -0.465266       -12.6605
  93   2.0000      -0.461814       -12.5666
  94   2.0000      -0.458932       -12.4882
  95   2.0000      -0.456487       -12.4216
  96   2.0000      -0.453979       -12.3534
  97   2.0000      -0.452813       -12.3217
  98   2.0000      -0.451141       -12.2762
  99   2.0000      -0.449396       -12.2287
 100   2.0000      -0.447746       -12.1838
 101   2.0000      -0.444897       -12.1063
 102   2.0000      -0.444317       -12.0905
 103   2.0000      -0.443162       -12.0591
 104   2.0000      -0.441285       -12.0080
 105   2.0000      -0.439909       -11.9705
 106   2.0000      -0.437761       -11.9121
 107   2.0000      -0.435555       -11.8521
 108   2.0000      -0.433688       -11.8012
 109   2.0000      -0.430023       -11.7015
 110   2.0000      -0.428180       -11.6514
 111   2.0000      -0.425910       -11.5896
 112   2.0000      -0.420711       -11.4481
 113   2.0000      -0.416506       -11.3337
 114   2.0000      -0.413757       -11.2589
 115   2.0000      -0.411394       -11.1946
 116   2.0000      -0.400200       -10.8900
 117   2.0000      -0.396843       -10.7987
 118   2.0000      -0.385222       -10.4824
 119   2.0000      -0.334015        -9.0890
 120   2.0000      -0.295102        -8.0301
 121   2.0000      -0.253261        -6.8916
 122   2.0000      -0.231084        -6.2881
 123   2.0000      -0.213233        -5.8024
 124   1.2000      -0.259743        -7.0680
 125   1.2000      -0.270147        -7.3511
 126   1.2000      -0.273748        -7.4491
 127   1.2000      -0.269270        -7.3272
 128   1.2000      -0.264375        -7.1940
 129   0.0000      -0.053566        -1.4576
 130   0.0000      -0.021150        -0.5755
 131   0.0000      -0.005288        -0.1439
 132   0.0000      -0.000882        -0.0240
 133   0.0000       0.010355         0.2818

MULLIKEN ATOMIC CHARGES AND SPIN DENSITIES
------------------------------------------
   0 Au:   -0.154954    0.013195
   1 Au:    0.317979    0.004126
   2 Au:    0.007578    0.008254
   3 Au:    0.032635    0.007938
   4 Au:    0.345292    0.003958
   5 Au:    0.233737    0.004348
   6 Au:    0.151458    0.009040
   7 Au:    0.405537    0.007450
   8 Au:    0.237026    0.009724
   9 Au:    0.113727    0.011187
  10 Au:    0.079707    0.008582
  11 Au:    0.219918    0.009103
  12 Fe:   -1.989640    2.903095
Sum of atomic charges       :    0.0000000

LOEWDIN ATOMIC CHARGES AND SPIN DENSITIES
-----------------------------------------
   0 Au:   -0.138694    0.015406
   1 Au:    0.044249    0.004850
   2 Au:   -0.030419    0.011163
   3 Au:   -0.015069    0.010911
   4 Au:    0.082038    0.004517
   5 Au:   -0.008532    0.005504
   6 Au:    0.010688    0.011777
   7 Au:    0.117607    0.010817
   8 Au:    0.046024    0.011508
   9 Au:    0.029107    0.014248
  10 Au:    0.038586    0.011804
  11 Au:    0.049393    0.011314
  12 Fe:   -0.224979    2.876182

  Mayer bond orders larger than 0.100000
B(  0-Au,  1-Au) :   0.1678 B(  0-Au,  2-Au) :   0.1529 B(  0-Au,  3-Au) :   0.1142
B(  0-Au,  4-Au) :   0.2725 B(  0-Au,  7-Au) :   0.3935 B(  0-Au, 10-Au) :   0.1094
B(  0-Au, 12-Fe) :   0.4537 B(  1-Au,  2-Au) :   0.3037 B(  1-Au,  3-Au) :   0.4029
B(  2-Au,  3-Au) :   0.2856 B(  2-Au,  4-Au) :   0.2295 B(  2-Au,  9-Au) :   0.1971
B(  2-Au, 10-Au) :   0.1746 B(  2-Au, 12-Fe) :   0.3679 B(  3-Au, 11-Au) :   0.1792
B(  3-Au, 12-Fe) :   0.4303 B(  4-Au, 10-Au) :   0.3437 B(  5-Au,  6-Au) :   0.1685
B(  5-Au,  8-Au) :   0.1684 B(  5-Au,  9-Au) :   0.3599 B(  5-Au, 11-Au) :   0.1919
B(  5-Au, 12-Fe) :   0.2134 B(  6-Au,  8-Au) :   0.2224 B(  6-Au, 10-Au) :   0.2610
B(  6-Au, 11-Au) :   0.1106 B(  6-Au, 12-Fe) :   0.4863 B(  7-Au,  8-Au) :   0.1034
B(  7-Au, 12-Fe) :   0.4364 B(  8-Au,  9-Au) :   0.1484 B(  8-Au, 11-Au) :   0.2157
B(  8-Au, 12-Fe) :   0.3630 B(  9-Au, 12-Fe) :   0.4872 B( 10-Au, 12-Fe) :   0.4682
B( 11-Au, 12-Fe) :   0.4306

FINAL SINGLE POINT ENERGY     -2880.060555508590

DIPOLE MOMENT
-------------
                                X             Y             Z
Electronic contribution:    -13.36260      -4.15040     -11.25894
Nuclear contribution   :     13.35302       4.29991      11.38384
                        -----------------------------------------
Total Dipole Moment    :     -0.00958       0.14950       0.12490
                        -----------------------------------------
Magnitude (a.u.)       :      0.19505
Magnitude (Debye)      :      0.49577

Rotational constants in cm-1:     0.001839     0.001117     0.001001
Rotational constants in MHz :    55.124708    33.476668    30.004995

                             ****ORCA TERMINATED NORMALLY****
TOTAL RUN TIME: 0 days 6 hours 9 minutes 58 seconds 807 msec
