                         Program Version 5.0.3 -  RELEASE  -
|  1> !CASSCF def2-TZVP def2-TZVP/C
|  2> !MOREAD RIJCOSX
|  3> %maxcore 6000
|  4> %moinp "pbe.qro"
|  5> %pal nprocs 2 end
|  6>
|  7> %casscf
|  8>  mult 5,3
|  9>  bweight 1,1
| 10>  nroots 5,45
| 11>  nel 6
| 12>  norb 5
| 13> end
| 14>
| 15>
| 16> *xyzfile 0 5 pbe.xyz
| 17>
| 18>
| 19>                          ****END OF INPUT****

CARTESIAN COORDINATES (ANGSTROEM)
---------------------------------
  Au     6.439690    8.402611    8.742717
  Au     6.016457    9.603232    6.197072
  Au     8.720283    4.487923   10.492521
  Au    10.599760    6.650051    6.568332
  Au     7.959489    5.668176    8.078503
  Au     8.260800    5.826897    5.309550
  Au     5.939499    6.803164    6.524347
  Au     9.623428    8.081070    4.309824
  Au     8.176761    9.826803   10.278955
  Au     8.100625    7.126089   10.538007
  Au    10.519362    6.106302    9.273093
  Au    10.591177    8.493238   10.836226
  Au    10.490868    9.723888    6.305963
  Au    10.485514   10.599883    8.923313
  Au     8.084380   10.742173    7.563406
  Au    11.884882    8.260379    8.346099
  Cr     8.298009    8.180011    6.705880

 Total Charge           Charge          ....    0
 Multiplicity           Mult            ....    5
 Number of Electrons    NEL             ....  328
 Basis Dimension        Dim             ....  685

ORBITAL ENERGIES
----------------

  NO   OCC          E(Eh)            E(eV)
   0   2.0000    -220.502862     -6000.1879
   1   2.0000     -26.340508      -716.7617
   2   2.0000     -22.274329      -606.1153
   3   2.0000     -22.274031      -606.1072
   4   2.0000     -22.260162      -605.7298
   5   2.0000      -4.714781      -128.2957
   6   2.0000      -4.713157      -128.2515
   7   2.0000      -4.712987      -128.2469
   8   2.0000      -4.712845      -128.2430
   9   2.0000      -4.712771      -128.2410
  10   2.0000      -4.710085      -128.1679
  11   2.0000      -4.709894      -128.1627
  12   2.0000      -4.709459      -128.1509
  13   2.0000      -4.708344      -128.1206
  14   2.0000      -4.708261      -128.1183
  15   2.0000      -4.706282      -128.0644
  16   2.0000      -4.705816      -128.0518
  17   2.0000      -4.705755      -128.0501
  18   2.0000      -4.705143      -128.0335
  19   2.0000      -4.705001      -128.0296
  20   2.0000      -4.702810      -127.9700
  21   2.0000      -3.395124       -92.3860
  22   2.0000      -2.757340       -75.0310
  23   2.0000      -2.755140       -74.9712
  24   2.0000      -2.754648       -74.9578
  25   2.0000      -2.752686       -74.9044
  26   2.0000      -2.751500       -74.8721
  27   2.0000      -2.750985       -74.8581
  28   2.0000      -2.750952       -74.8572
  29   2.0000      -2.750325       -74.8402
  30   2.0000      -2.749438       -74.8160
  31   2.0000      -2.749221       -74.8101
  32   2.0000      -2.749064       -74.8058
  33   2.0000      -2.748810       -74.7989
  34   2.0000      -2.748533       -74.7914
  35   2.0000      -2.748173       -74.7816
  36   2.0000      -2.747792       -74.7712
  37   2.0000      -2.747300       -74.7578
  38   2.0000      -2.747257       -74.7567
  39   2.0000      -2.746767       -74.7433
  40   2.0000      -2.746221       -74.7285
  41   2.0000      -2.745798       -74.7170
  42   2.0000      -2.745450       -74.7075
  43   2.0000      -2.745062       -74.6969
  44   2.0000      -2.744825       -74.6905
  45   2.0000      -2.744375       -74.6782
  46   2.0000      -2.744328       -74.6770
  47   2.0000      -2.743399       -74.6517
  48   2.0000      -2.743365       -74.6508
  49   2.0000      -2.743313       -74.6493
  50   2.0000      -2.743294       -74.6488
  51   2.0000      -2.742477       -74.6266
  52   2.0000      -2.742261       -74.6207
  53   2.0000      -2.742240       -74.6202
  54   2.0000      -2.742002       -74.6137
  55   2.0000      -2.741698       -74.6054
  56   2.0000      -2.741611       -74.6030
  57   2.0000      -2.741357       -74.5961
  58   2.0000      -2.740780       -74.5804
  59   2.0000      -2.740384       -74.5696
  60   2.0000      -2.740257       -74.5662
  61   2.0000      -2.740208       -74.5649
  62   2.0000      -2.739624       -74.5490
  63   2.0000      -2.739559       -74.5472
  64   2.0000      -2.738387       -74.5153
  65   2.0000      -2.737971       -74.5040
  66   2.0000      -2.737021       -74.4781
  67   2.0000      -2.735870       -74.4468
  68   2.0000      -2.735637       -74.4405
  69   2.0000      -2.735608       -74.4397
  70   2.0000      -2.161487       -58.8171
  71   2.0000      -2.160433       -58.7884
  72   2.0000      -2.146109       -58.3986
  73   2.0000      -0.569720       -15.5029
  74   2.0000      -0.560107       -15.2413
  75   2.0000      -0.553634       -15.0652
  76   2.0000      -0.553306       -15.0562
  77   2.0000      -0.548183       -14.9168
  78   2.0000      -0.543538       -14.7904
  79   2.0000      -0.539933       -14.6923
  80   2.0000      -0.538251       -14.6466
  81   2.0000      -0.537341       -14.6218
  82   2.0000      -0.537175       -14.6173
  83   2.0000      -0.535085       -14.5604
  84   2.0000      -0.533165       -14.5081
  85   2.0000      -0.533019       -14.5042
  86   2.0000      -0.531596       -14.4655
  87   2.0000      -0.530035       -14.4230
  88   2.0000      -0.529875       -14.4186
  89   2.0000      -0.527338       -14.3496
  90   2.0000      -0.526742       -14.3334
  91   2.0000      -0.525659       -14.3039
  92   2.0000      -0.524266       -14.2660
  93   2.0000      -0.523221       -14.2376
  94   2.0000      -0.521347       -14.1866
  95   2.0000      -0.516773       -14.0621
  96   2.0000      -0.513730       -13.9793
  97   2.0000      -0.512553       -13.9473
  98   2.0000      -0.510592       -13.8939
  99   2.0000      -0.509055       -13.8521
 100   2.0000      -0.505301       -13.7499
 101   2.0000      -0.501752       -13.6534
 102   2.0000      -0.501330       -13.6419
 103   2.0000      -0.500165       -13.6102
 104   2.0000      -0.499565       -13.5939
 105   2.0000      -0.490240       -13.3401
 106   2.0000      -0.489173       -13.3111
 107   2.0000      -0.488475       -13.2921
 108   2.0000      -0.487717       -13.2715
 109   2.0000      -0.484362       -13.1802
 110   2.0000      -0.482101       -13.1186
 111   2.0000      -0.480645       -13.0790
 112   2.0000      -0.476019       -12.9531
 113   2.0000      -0.471846       -12.8396
 114   2.0000      -0.468645       -12.7525
 115   2.0000      -0.467025       -12.7084
 116   2.0000      -0.464301       -12.6343
 117   2.0000      -0.464062       -12.6278
 118   2.0000      -0.460013       -12.5176
 119   2.0000      -0.459011       -12.4903
 120   2.0000      -0.457778       -12.4568
 121   2.0000      -0.456890       -12.4326
 122   2.0000      -0.452487       -12.3128
 123   2.0000      -0.451716       -12.2918
 124   2.0000      -0.450708       -12.2644
 125   2.0000      -0.447932       -12.1888
 126   2.0000      -0.447530       -12.1779
 127   2.0000      -0.447385       -12.1740
 128   2.0000      -0.443604       -12.0711
 129   2.0000      -0.441870       -12.0239
 130   2.0000      -0.441149       -12.0043
 131   2.0000      -0.440386       -11.9835
 132   2.0000      -0.437803       -11.9132
 133   2.0000      -0.437499       -11.9050
 134   2.0000      -0.435465       -11.8496
 135   2.0000      -0.435081       -11.8391
 136   2.0000      -0.434104       -11.8126
 137   2.0000      -0.433026       -11.7832
 138   2.0000      -0.430140       -11.7047
 139   2.0000      -0.428733       -11.6664
 140   2.0000      -0.428140       -11.6503
 141   2.0000      -0.424709       -11.5569
 142   2.0000      -0.421637       -11.4733
 143   2.0000      -0.419688       -11.4203
 144   2.0000      -0.419030       -11.4024
 145   2.0000      -0.417283       -11.3549
 146   2.0000      -0.412021       -11.2117
 147   2.0000      -0.410356       -11.1663
 148   2.0000      -0.410076       -11.1587
 149   2.0000      -0.402610       -10.9556
 150   2.0000      -0.401156       -10.9160
 151   2.0000      -0.397919       -10.8279
 152   2.0000      -0.390405       -10.6235
 153   2.0000      -0.379544       -10.3279
 154   2.0000      -0.369430       -10.0527
 155   2.0000      -0.362563        -9.8658
 156   2.0000      -0.357267        -9.7217
 157   2.0000      -0.266886        -7.2623
 158   2.0000      -0.264373        -7.1940
 159   2.0000      -0.241770        -6.5789
 160   2.0000      -0.216299        -5.8858
 161   1.2000      -0.101089        -2.7508
 162   1.2000      -0.121887        -3.3167
 163   1.2000      -0.126576        -3.4443
 164   1.2000      -0.081899        -2.2286
 165   1.2000      -0.108083        -2.9411
 166   0.0000      -0.024095        -0.6556
 167   0.0000      -0.013406        -0.3648
 168   0.0000      -0.006233        -0.1696
 169   0.0000       0.001723         0.0469
 170   0.0000       0.006976         0.1898

MULLIKEN ATOMIC CHARGES AND SPIN DENSITIES
------------------------------------------
   0 Au:    0.239828    0.092996
   1 Au:    0.529300    0.058503
   2 Au:    0.647618    0.018249
   3 Au:    0.238776    0.092381
   4 Au:   -0.564343    0.056457
   5 Au:    0.674143    0.022338
   6 Au:    0.674892    0.022254
   7 Au:    0.529460    0.058072
   8 Au:    0.229758    0.023648
   9 Au:   -0.283170    0.023446
  10 Au:   -0.291091    0.023388
  11 Au:    0.207729    0.091443
  12 Au:    0.219455    0.018667
  13 Au:    0.125789    0.014106
  14 Au:    0.221388    0.018204
  15 Au:    0.234909    0.023610
  16 Cr:   -3.634441    2.342237
Sum of atomic charges       :    0.0000000

LOEWDIN ATOMIC CHARGES AND SPIN DENSITIES
-----------------------------------------
   0 Au:    0.011758    0.050916
   1 Au:    0.203970    0.065139
   2 Au:    0.244230    0.027097
   3 Au:    0.011452    0.050507
   4 Au:   -0.081243    0.032760
   5 Au:    0.143496    0.044622
   6 Au:    0.143557    0.044713
   7 Au:    0.204156    0.064764
   8 Au:    0.044473    0.040393
   9 Au:   -0.075125    0.051211
  10 Au:   -0.076345    0.051079
  11 Au:    0.073396    0.071731
  12 Au:    0.027819    0.032626
  13 Au:    0.019039    0.025167
  14 Au:    0.028602    0.032556
  15 Au:    0.045299    0.040418
  16 Cr:   -0.968534    2.274304

  Mayer bond orders larger than 0.100000
B(  0-Au,  1-Au) :   0.1301 B(  0-Au,  4-Au) :   0.1018 B(  0-Au,  6-Au) :   0.1461
B(  0-Au,  7-Au) :   0.1434 B(  0-Au,  8-Au) :   0.1897 B(  0-Au,  9-Au) :   0.2377
B(  0-Au, 16-Cr) :   0.2912 B(  1-Au,  3-Au) :   0.1435 B(  1-Au,  6-Au) :   0.1364
B(  1-Au, 14-Au) :   0.2378 B(  1-Au, 16-Cr) :   0.3047 B(  2-Au,  4-Au) :   0.3383
B(  2-Au,  9-Au) :   0.2274 B(  2-Au, 10-Au) :   0.2286 B(  3-Au,  4-Au) :   0.1021
B(  3-Au,  5-Au) :   0.1457 B(  3-Au,  7-Au) :   0.1304 B(  3-Au, 10-Au) :   0.2391
B(  3-Au, 15-Au) :   0.1899 B(  3-Au, 16-Cr) :   0.2926 B(  4-Au,  5-Au) :   0.1621
B(  4-Au,  6-Au) :   0.1618 B(  4-Au,  9-Au) :   0.3478 B(  4-Au, 10-Au) :   0.3497
B(  4-Au, 16-Cr) :   0.3308 B(  5-Au,  6-Au) :   0.1115 B(  5-Au,  7-Au) :   0.1372
B(  5-Au, 16-Cr) :   0.2682 B(  6-Au, 16-Cr) :   0.2682 B(  7-Au, 12-Au) :   0.2377
B(  7-Au, 16-Cr) :   0.3037 B(  8-Au,  9-Au) :   0.3316 B(  8-Au, 11-Au) :   0.2418
B(  8-Au, 13-Au) :   0.1570 B(  8-Au, 14-Au) :   0.1019 B(  8-Au, 16-Cr) :   0.2801
B(  9-Au, 10-Au) :   0.2564 B(  9-Au, 11-Au) :   0.1804 B(  9-Au, 16-Cr) :   0.2724
B( 10-Au, 11-Au) :   0.1812 B( 10-Au, 15-Au) :   0.3319 B( 10-Au, 16-Cr) :   0.2735
B( 11-Au, 13-Au) :   0.2154 B( 11-Au, 15-Au) :   0.2393 B( 12-Au, 13-Au) :   0.2405
B( 12-Au, 14-Au) :   0.1984 B( 12-Au, 15-Au) :   0.1024 B( 12-Au, 16-Cr) :   0.3926
B( 13-Au, 14-Au) :   0.2381 B( 13-Au, 15-Au) :   0.1577 B( 13-Au, 16-Cr) :   0.3309
B( 14-Au, 16-Cr) :   0.3937 B( 15-Au, 16-Cr) :   0.2781

FINAL SINGLE POINT ENERGY     -3200.152179976415

DIPOLE MOMENT
-------------
                                X             Y             Z
Electronic contribution:     19.67607     -10.54282      45.98009
Nuclear contribution   :    -20.12713       9.87803     -46.30727
                        -----------------------------------------
Total Dipole Moment    :     -0.45106      -0.66480      -0.32718
                        -----------------------------------------
Magnitude (a.u.)       :      0.86744
Magnitude (Debye)      :      2.20486

Rotational constants in cm-1:     0.000865     0.000785     0.000717
Rotational constants in MHz :    25.929728    23.528301    21.497504

                             ****ORCA TERMINATED NORMALLY****
TOTAL RUN TIME: 0 days 1 hours 23 minutes 37 seconds 654 msec
