                         Program Version 5.0.3 -  RELEASE  -
|  1> %pal nprocs 1 end
|  2>
|  3> !PBE def2-TZVP OPT UNO
|  4> !SLOWCONV
|  5>
|  6> *xyz 0 5
|  7>  Au  7.08088746842608      5.28351093808632      7.32065361468019
|  8>  Au  8.78264997826374      6.16487909021830      5.40384975294638
|  9>  Au  7.15717995153128      8.40384404609471      4.72139856949889
| 10>  Au  8.84228625541944     10.44306017394841      6.14563912834709
| 11>  Au  9.92613868712282      8.50179709640499      4.50809016622455
| 12>  Au  9.65306464323042      6.01076955513069      8.09762828240291
| 13>  Au  10.58799704998242      8.53162779401168      7.27933787416705
| 14>  Au  6.32856068526750      8.50505557679215      9.39446539882977
| 15>  Au  8.01054968741188     10.57087484961788      8.75310457873825
| 16>  Au  5.32478620145710      7.39255881088918      6.53308157636599
| 17>  Au  7.60146628305174      6.04065332704166     10.03289642653988
| 18>  Au  5.00067869495395      6.11497420469343      8.95751986170216
| 19>  Au  9.23451293950894      8.26024802672738      9.70632745804242
| 20>  Au  6.14499898249416     10.01284503677370      6.74992673398022
| 21>  Fe  7.94074197187838      8.00562113356925      7.29216269753397
| 22> *
| 23>
| 24>                          ****END OF INPUT****
 Total Charge           Charge          ....    0
 Multiplicity           Mult            ....    5
 Number of Electrons    NEL             ....  292
FINAL SINGLE POINT ENERGY     -3165.080744312057
                    ***********************HURRAY********************

CARTESIAN COORDINATES (ANGSTROEM)
---------------------------------
  Au     7.080532    5.283059    7.320395
  Au     8.783703    6.165548    5.404195
  Au     7.157217    8.403894    4.721445
  Au     8.841413   10.444020    6.146051
  Au     9.926650    8.501200    4.507662
  Au     9.653123    6.010096    8.097135
  Au    10.588475    8.531537    7.279928
  Au     6.329151    8.505825    9.394353
  Au     8.010635   10.571223    8.752826
  Au     5.324738    7.392601    6.534137
  Au     7.601467    6.040208   10.032880
  Au     5.000152    6.115183    8.957864
  Au     9.234053    8.259889    9.705848
  Au     6.144287   10.012649    6.749460
  Fe     7.940904    8.005388    7.291902

 Multiplicity           Mult            ....    5
 Number of Electrons    NEL             ....  292
 Basis Dimension        Dim             ....  605

ORBITAL ENERGIES
----------------
                 SPIN UP ORBITALS
  NO   OCC          E(Eh)            E(eV)
   0   1.0000    -254.776672     -6932.8257
   1   1.0000     -29.616650      -805.9100
   2   1.0000     -25.556687      -695.4328
   3   1.0000     -25.549732      -695.2436
   4   1.0000     -25.548048      -695.1977
   5   1.0000      -4.034797      -109.7924
   6   1.0000      -4.033007      -109.7437
   7   1.0000      -4.032398      -109.7271
   8   1.0000      -4.031892      -109.7134
   9   1.0000      -4.031107      -109.6920
  10   1.0000      -4.030485      -109.6751
  11   1.0000      -4.028341      -109.6167
  12   1.0000      -4.027657      -109.5981
  13   1.0000      -4.026676      -109.5714
  14   1.0000      -4.025188      -109.5309
  15   1.0000      -4.025063      -109.5275
  16   1.0000      -4.023659      -109.4893
  17   1.0000      -4.019814      -109.3847
  18   1.0000      -4.017914      -109.3330
  19   1.0000      -3.396313       -92.4184
  20   1.0000      -2.251609       -61.2694
  21   1.0000      -2.248865       -61.1947
  22   1.0000      -2.248459       -61.1837
  23   1.0000      -2.248208       -61.1768
  24   1.0000      -2.248060       -61.1728
  25   1.0000      -2.246839       -61.1396
  26   1.0000      -2.246659       -61.1347
  27   1.0000      -2.246175       -61.1215
  28   1.0000      -2.245730       -61.1094
  29   1.0000      -2.245294       -61.0975
  30   1.0000      -2.244980       -61.0890
  31   1.0000      -2.244946       -61.0881
  32   1.0000      -2.244182       -61.0673
  33   1.0000      -2.243943       -61.0608
  34   1.0000      -2.243540       -61.0498
  35   1.0000      -2.243177       -61.0399
  36   1.0000      -2.242814       -61.0301
  37   1.0000      -2.242315       -61.0165
  38   1.0000      -2.241363       -60.9906
  39   1.0000      -2.241325       -60.9896
  40   1.0000      -2.240665       -60.9716
  41   1.0000      -2.240592       -60.9696
  42   1.0000      -2.240424       -60.9650
  43   1.0000      -2.240270       -60.9609
  44   1.0000      -2.240001       -60.9535
  45   1.0000      -2.239287       -60.9341
  46   1.0000      -2.238488       -60.9124
  47   1.0000      -2.238408       -60.9102
  48   1.0000      -2.237567       -60.8873
  49   1.0000      -2.237346       -60.8813
  50   1.0000      -2.236859       -60.8680
  51   1.0000      -2.236564       -60.8600
  52   1.0000      -2.236505       -60.8584
  53   1.0000      -2.235896       -60.8418
  54   1.0000      -2.234146       -60.7942
  55   1.0000      -2.234093       -60.7928
  56   1.0000      -2.233123       -60.7664
  57   1.0000      -2.232935       -60.7613
  58   1.0000      -2.232582       -60.7517
  59   1.0000      -2.231053       -60.7100
  60   1.0000      -2.230088       -60.6838
  61   1.0000      -2.229100       -60.6569
  62   1.0000      -2.220324       -60.4181
  63   1.0000      -2.205750       -60.0215
  64   1.0000      -2.202598       -59.9357
  65   1.0000      -0.438896       -11.9430
  66   1.0000      -0.392283       -10.6746
  67   1.0000      -0.387350       -10.5403
  68   1.0000      -0.385234       -10.4827
  69   1.0000      -0.383357       -10.4317
  70   1.0000      -0.380279       -10.3479
  71   1.0000      -0.375339       -10.2135
  72   1.0000      -0.372132       -10.1262
  73   1.0000      -0.369078       -10.0431
  74   1.0000      -0.364341        -9.9142
  75   1.0000      -0.357795        -9.7361
  76   1.0000      -0.356258        -9.6943
  77   1.0000      -0.353916        -9.6305
  78   1.0000      -0.353055        -9.6071
  79   1.0000      -0.351931        -9.5765
  80   1.0000      -0.348993        -9.4966
  81   1.0000      -0.347448        -9.4545
  82   1.0000      -0.346727        -9.4349
  83   1.0000      -0.342653        -9.3241
  84   1.0000      -0.341764        -9.2999
  85   1.0000      -0.341296        -9.2871
  86   1.0000      -0.336943        -9.1687
  87   1.0000      -0.334438        -9.1005
  88   1.0000      -0.333423        -9.0729
  89   1.0000      -0.331126        -9.0104
  90   1.0000      -0.328361        -8.9352
  91   1.0000      -0.327574        -8.9137
  92   1.0000      -0.323045        -8.7905
  93   1.0000      -0.321967        -8.7612
  94   1.0000      -0.320271        -8.7150
  95   1.0000      -0.319253        -8.6873
  96   1.0000      -0.315391        -8.5822
  97   1.0000      -0.314869        -8.5680
  98   1.0000      -0.312476        -8.5029
  99   1.0000      -0.308090        -8.3836
 100   1.0000      -0.305221        -8.3055
 101   1.0000      -0.302863        -8.2413
 102   1.0000      -0.300404        -8.1744
 103   1.0000      -0.299377        -8.1465
 104   1.0000      -0.295857        -8.0507
 105   1.0000      -0.291988        -7.9454
 106   1.0000      -0.287837        -7.8324
 107   1.0000      -0.285938        -7.7808
 108   1.0000      -0.283478        -7.7138
 109   1.0000      -0.282287        -7.6814
 110   1.0000      -0.279014        -7.5924
 111   1.0000      -0.277528        -7.5519
 112   1.0000      -0.276147        -7.5143
 113   1.0000      -0.275322        -7.4919
 114   1.0000      -0.274803        -7.4778
 115   1.0000      -0.273496        -7.4422
 116   1.0000      -0.271288        -7.3821
 117   1.0000      -0.269880        -7.3438
 118   1.0000      -0.268516        -7.3067
 119   1.0000      -0.267500        -7.2790
 120   1.0000      -0.265773        -7.2320
 121   1.0000      -0.264568        -7.1993
 122   1.0000      -0.264041        -7.1849
 123   1.0000      -0.261554        -7.1172
 124   1.0000      -0.260520        -7.0891
 125   1.0000      -0.259950        -7.0736
 126   1.0000      -0.259158        -7.0520
 127   1.0000      -0.258177        -7.0254
 128   1.0000      -0.256685        -6.9847
 129   1.0000      -0.256286        -6.9739
 130   1.0000      -0.255228        -6.9451
 131   1.0000      -0.254082        -6.9139
 132   1.0000      -0.252725        -6.8770
 133   1.0000      -0.252440        -6.8692
 134   1.0000      -0.250752        -6.8233
 135   1.0000      -0.249444        -6.7877
 136   1.0000      -0.248428        -6.7601
 137   1.0000      -0.247485        -6.7344
 138   1.0000      -0.246647        -6.7116
 139   1.0000      -0.245803        -6.6886
 140   1.0000      -0.245117        -6.6700
 141   1.0000      -0.243790        -6.6339
 142   1.0000      -0.237732        -6.4690
 143   1.0000      -0.230785        -6.2800
 144   1.0000      -0.222611        -6.0575
 145   1.0000      -0.201884        -5.4935
 146   1.0000      -0.199864        -5.4386
 147   1.0000      -0.196950        -5.3593
 148   0.0000      -0.178470        -4.8564
 149   0.0000      -0.147213        -4.0059
 150   0.0000      -0.136615        -3.7175
 151   0.0000      -0.124181        -3.3791
 152   0.0000      -0.117638        -3.2011

                 SPIN DOWN ORBITALS
  NO   OCC          E(Eh)            E(eV)
   0   1.0000    -254.775940     -6932.8058
   1   1.0000     -29.554551      -804.2202
   2   1.0000     -25.507082      -694.0830
   3   1.0000     -25.503743      -693.9921
   4   1.0000     -25.502940      -693.9703
   5   1.0000      -4.033695      -109.7624
   6   1.0000      -4.032640      -109.7337
   7   1.0000      -4.031985      -109.7159
   8   1.0000      -4.031685      -109.7077
   9   1.0000      -4.030512      -109.6758
  10   1.0000      -4.029866      -109.6582
  11   1.0000      -4.027885      -109.6043
  12   1.0000      -4.027151      -109.5844
  13   1.0000      -4.026642      -109.5705
  14   1.0000      -4.024612      -109.5153
  15   1.0000      -4.024278      -109.5062
  16   1.0000      -4.023872      -109.4951
  17   1.0000      -4.019987      -109.3894
  18   1.0000      -4.017745      -109.3284
  19   1.0000      -3.256670       -88.6185
  20   1.0000      -2.250361       -61.2354
  21   1.0000      -2.248316       -61.1798
  22   1.0000      -2.247776       -61.1651
  23   1.0000      -2.247517       -61.1580
  24   1.0000      -2.246588       -61.1328
  25   1.0000      -2.246409       -61.1279
  26   1.0000      -2.246204       -61.1223
  27   1.0000      -2.245471       -61.1024
  28   1.0000      -2.245308       -61.0979
  29   1.0000      -2.244867       -61.0859
  30   1.0000      -2.244547       -61.0772
  31   1.0000      -2.243939       -61.0607
  32   1.0000      -2.243800       -61.0569
  33   1.0000      -2.243615       -61.0519
  34   1.0000      -2.243148       -61.0392
  35   1.0000      -2.242712       -61.0273
  36   1.0000      -2.242205       -61.0135
  37   1.0000      -2.241839       -61.0035
  38   1.0000      -2.240677       -60.9719
  39   1.0000      -2.240642       -60.9710
  40   1.0000      -2.240402       -60.9644
  41   1.0000      -2.240035       -60.9545
  42   1.0000      -2.239844       -60.9493
  43   1.0000      -2.239494       -60.9397
  44   1.0000      -2.239314       -60.9348
  45   1.0000      -2.239069       -60.9282
  46   1.0000      -2.237845       -60.8948
  47   1.0000      -2.237584       -60.8878
  48   1.0000      -2.237490       -60.8852
  49   1.0000      -2.237024       -60.8725
  50   1.0000      -2.236906       -60.8693
  51   1.0000      -2.236752       -60.8651
  52   1.0000      -2.236311       -60.8531
  53   1.0000      -2.235923       -60.8426
  54   1.0000      -2.233994       -60.7901
  55   1.0000      -2.233724       -60.7827
  56   1.0000      -2.233124       -60.7664
  57   1.0000      -2.232942       -60.7614
  58   1.0000      -2.232485       -60.7490
  59   1.0000      -2.231334       -60.7177
  60   1.0000      -2.229967       -60.6805
  61   1.0000      -2.228813       -60.6491
  62   1.0000      -2.075707       -56.4828
  63   1.0000      -2.071767       -56.3756
  64   1.0000      -2.071279       -56.3624
  65   1.0000      -0.434269       -11.8171
  66   1.0000      -0.390968       -10.6388
  67   1.0000      -0.385769       -10.4973
  68   1.0000      -0.384308       -10.4576
  69   1.0000      -0.374228       -10.1833
  70   1.0000      -0.370802       -10.0900
  71   1.0000      -0.367746       -10.0069
  72   1.0000      -0.366028        -9.9601
  73   1.0000      -0.363249        -9.8845
  74   1.0000      -0.357731        -9.7343
  75   1.0000      -0.355490        -9.6734
  76   1.0000      -0.353676        -9.6240
  77   1.0000      -0.351514        -9.5652
  78   1.0000      -0.351224        -9.5573
  79   1.0000      -0.348725        -9.4893
  80   1.0000      -0.346962        -9.4413
  81   1.0000      -0.346095        -9.4177
  82   1.0000      -0.344939        -9.3863
  83   1.0000      -0.341141        -9.2829
  84   1.0000      -0.340496        -9.2654
  85   1.0000      -0.339899        -9.2491
  86   1.0000      -0.335503        -9.1295
  87   1.0000      -0.332836        -9.0569
  88   1.0000      -0.332009        -9.0344
  89   1.0000      -0.329474        -8.9654
  90   1.0000      -0.327168        -8.9027
  91   1.0000      -0.323198        -8.7947
  92   1.0000      -0.321573        -8.7505
  93   1.0000      -0.317053        -8.6275
  94   1.0000      -0.316019        -8.5993
  95   1.0000      -0.314426        -8.5560
  96   1.0000      -0.310887        -8.4597
  97   1.0000      -0.308025        -8.3818
  98   1.0000      -0.306397        -8.3375
  99   1.0000      -0.300639        -8.1808
 100   1.0000      -0.298462        -8.1216
 101   1.0000      -0.296876        -8.0784
 102   1.0000      -0.293033        -7.9738
 103   1.0000      -0.290308        -7.8997
 104   1.0000      -0.287908        -7.8344
 105   1.0000      -0.286095        -7.7850
 106   1.0000      -0.284205        -7.7336
 107   1.0000      -0.281949        -7.6722
 108   1.0000      -0.281437        -7.6583
 109   1.0000      -0.279312        -7.6005
 110   1.0000      -0.277730        -7.5574
 111   1.0000      -0.275244        -7.4898
 112   1.0000      -0.274051        -7.4573
 113   1.0000      -0.272975        -7.4280
 114   1.0000      -0.271964        -7.4005
 115   1.0000      -0.271154        -7.3785
 116   1.0000      -0.267969        -7.2918
 117   1.0000      -0.266845        -7.2612
 118   1.0000      -0.265994        -7.2381
 119   1.0000      -0.264317        -7.1924
 120   1.0000      -0.261052        -7.1036
 121   1.0000      -0.260563        -7.0903
 122   1.0000      -0.259047        -7.0490
 123   1.0000      -0.257222        -6.9994
 124   1.0000      -0.257041        -6.9944
 125   1.0000      -0.255756        -6.9595
 126   1.0000      -0.254874        -6.9355
 127   1.0000      -0.253758        -6.9051
 128   1.0000      -0.252099        -6.8600
 129   1.0000      -0.250095        -6.8054
 130   1.0000      -0.249214        -6.7815
 131   1.0000      -0.249047        -6.7769
 132   1.0000      -0.247356        -6.7309
 133   1.0000      -0.247106        -6.7241
 134   1.0000      -0.245769        -6.6877
 135   1.0000      -0.244175        -6.6443
 136   1.0000      -0.243707        -6.6316
 137   1.0000      -0.237982        -6.4758
 138   1.0000      -0.231001        -6.2859
 139   1.0000      -0.225680        -6.1411
 140   1.0000      -0.211507        -5.7554
 141   1.0000      -0.210226        -5.7206
 142   1.0000      -0.206014        -5.6059
 143   1.0000      -0.198393        -5.3986
 144   0.0000      -0.173361        -4.7174
 145   0.0000      -0.169257        -4.6057
 146   0.0000      -0.168235        -4.5779
 147   0.0000      -0.162122        -4.4116
 148   0.0000      -0.157944        -4.2979

MULLIKEN ATOMIC CHARGES AND SPIN POPULATIONS
--------------------------------------------
   0 Au:    0.080688    0.075875
   1 Au:    0.106795    0.101862
   2 Au:    0.215546    0.054974
   3 Au:    0.120403    0.118872
   4 Au:    0.322238    0.030504
   5 Au:    0.304978   -0.014325
   6 Au:    0.114212    0.111797
   7 Au:   -0.068511    0.102207
   8 Au:    0.293438    0.046802
   9 Au:    0.045890    0.083185
  10 Au:    0.127228    0.119806
  11 Au:    0.371889    0.045387
  12 Au:    0.244490    0.005264
  13 Au:    0.324809   -0.027977
  14 Fe:   -2.604093    3.145766
Sum of atomic charges         :   -0.0000000

LOEWDIN ATOMIC CHARGES AND SPIN POPULATIONS
-------------------------------------------
   0 Au:   -0.000341    0.063580
   1 Au:    0.045060    0.053574
   2 Au:    0.034903    0.052131
   3 Au:    0.005297    0.078978
   4 Au:    0.064681    0.031222
   5 Au:    0.054835    0.027630
   6 Au:    0.055061    0.055017
   7 Au:    0.011842    0.067045
   8 Au:    0.076110    0.026599
   9 Au:    0.036791    0.040139
  10 Au:   -0.000937    0.089353
  11 Au:    0.082262    0.042668
  12 Au:    0.045745    0.028964
  13 Au:    0.067120    0.010804
  14 Fe:   -0.578430    3.332296

  Mayer bond orders larger than 0.100000
B(  0-Au,  1-Au) :   0.3094 B(  0-Au,  5-Au) :   0.2237 B(  0-Au,  9-Au) :   0.1730
B(  0-Au, 10-Au) :   0.2259 B(  0-Au, 11-Au) :   0.2840 B(  0-Au, 14-Fe) :   0.4217
B(  1-Au,  2-Au) :   0.1730 B(  1-Au,  4-Au) :   0.3034 B(  1-Au,  5-Au) :   0.1359
B(  1-Au, 14-Fe) :   0.5231 B(  2-Au,  3-Au) :   0.1323 B(  2-Au,  4-Au) :   0.2903
B(  2-Au,  9-Au) :   0.2242 B(  2-Au, 13-Au) :   0.2196 B(  2-Au, 14-Fe) :   0.4660
B(  3-Au,  4-Au) :   0.2809 B(  3-Au,  6-Au) :   0.1912 B(  3-Au,  8-Au) :   0.2583
B(  3-Au, 13-Au) :   0.2401 B(  3-Au, 14-Fe) :   0.4385 B(  4-Au,  6-Au) :   0.2296
B(  4-Au, 14-Fe) :   0.1771 B(  5-Au,  6-Au) :   0.1788 B(  5-Au, 10-Au) :   0.2652
B(  5-Au, 12-Au) :   0.1819 B(  5-Au, 14-Fe) :   0.4778 B(  6-Au, 12-Au) :   0.2022
B(  6-Au, 14-Fe) :   0.5490 B(  7-Au,  8-Au) :   0.3337 B(  7-Au,  9-Au) :   0.1119
B(  7-Au, 10-Au) :   0.2420 B(  7-Au, 11-Au) :   0.3258 B(  7-Au, 12-Au) :   0.1655
B(  7-Au, 14-Fe) :   0.5413 B(  8-Au, 12-Au) :   0.1954 B(  8-Au, 13-Au) :   0.1908
B(  8-Au, 14-Fe) :   0.3978 B(  9-Au, 11-Au) :   0.2988 B(  9-Au, 13-Au) :   0.2069
B(  9-Au, 14-Fe) :   0.5271 B( 10-Au, 11-Au) :   0.2240 B( 10-Au, 12-Au) :   0.2735
B( 10-Au, 14-Fe) :   0.2639 B( 11-Au, 14-Fe) :   0.1080 B( 12-Au, 14-Fe) :   0.4751
B( 13-Au, 14-Fe) :   0.4703

FINAL SINGLE POINT ENERGY     -3165.080746985735

DIPOLE MOMENT
-------------
                                X             Y             Z
Electronic contribution:     -4.16266      -4.95110       4.18173
Nuclear contribution   :      4.08258       5.01367      -4.13844
                        -----------------------------------------
Total Dipole Moment    :     -0.08009       0.06258       0.04329
                        -----------------------------------------
Magnitude (a.u.)       :      0.11047
Magnitude (Debye)      :      0.28079

Rotational constants in cm-1:     0.001254     0.000970     0.000958
Rotational constants in MHz :    37.594930    29.086374    28.731432

                             ****ORCA TERMINATED NORMALLY****
TOTAL RUN TIME: 0 days 0 hours 15 minutes 1 seconds 106 msec
