                         Program Version 5.0.3 -  RELEASE  -
|  1> %pal nprocs 1 end
|  2>
|  3> !PBE def2-TZVP OPT UNO
|  4> !SLOWCONV KDIIS
|  5>
|  6> %geom maxiter 300 end
|  7>
|  8> *xyzfile 0 6 4.xyz                           ****END OF INPUT****
 Total Charge           Charge          ....    0
 Multiplicity           Mult            ....    6
 Number of Electrons    NEL             ....  253
FINAL SINGLE POINT ENERGY     -2780.663898784595
FINAL SINGLE POINT ENERGY     -2780.669323433312
FINAL SINGLE POINT ENERGY     -2780.673432025455
FINAL SINGLE POINT ENERGY     -2780.676190451160
FINAL SINGLE POINT ENERGY     -2780.678118185938
FINAL SINGLE POINT ENERGY     -2780.679552456902
FINAL SINGLE POINT ENERGY     -2780.680767524254
FINAL SINGLE POINT ENERGY     -2780.681873500604
FINAL SINGLE POINT ENERGY     -2780.682893837305
FINAL SINGLE POINT ENERGY     -2780.683827529866
FINAL SINGLE POINT ENERGY     -2780.694185828953
FINAL SINGLE POINT ENERGY     -2780.694214427356
FINAL SINGLE POINT ENERGY     -2780.694255076992
FINAL SINGLE POINT ENERGY     -2780.694293555369
FINAL SINGLE POINT ENERGY     -2780.694325397201
FINAL SINGLE POINT ENERGY     -2780.694354747870
FINAL SINGLE POINT ENERGY     -2780.694377867168
FINAL SINGLE POINT ENERGY     -2780.694386933959
FINAL SINGLE POINT ENERGY     -2780.694394499497
                    ***********************HURRAY********************

CARTESIAN COORDINATES (ANGSTROEM)
---------------------------------
  Au     7.684573    9.211404   11.374191
  Au     5.649054    7.641254   10.392755
  Au     7.454063   10.226802    6.635365
  Au     5.303512    9.339611    8.079182
  Au     7.177578   10.962645    9.231766
  Au     9.838037    9.892245    9.732159
  Au     9.986059    9.207768    7.109921
  Au     4.490956    6.781661    7.926049
  Au     7.109582    5.819749    8.836225
  Au     8.492490    6.649113    6.766094
  Au     8.499207    8.524666    4.757982
  Au     6.035406    7.643519    5.849467
  Mn     7.852773    8.378167    8.788796

 Multiplicity           Mult            ....    6
 Number of Electrons    NEL             ....  253
 Basis Dimension        Dim             ....  525

ORBITAL ENERGIES
----------------
                 SPIN UP ORBITALS
  NO   OCC          E(Eh)            E(eV)
   0   1.0000    -234.204301     -6373.0230
   1   1.0000     -26.899873      -731.9828
   2   1.0000     -23.049514      -627.2092
   3   1.0000     -23.047874      -627.1645
   4   1.0000     -23.046743      -627.1338
   5   1.0000      -4.038390      -109.8902
   6   1.0000      -4.037310      -109.8608
   7   1.0000      -4.034176      -109.7755
   8   1.0000      -4.030513      -109.6758
   9   1.0000      -4.028696      -109.6264
  10   1.0000      -4.024317      -109.5072
  11   1.0000      -4.024011      -109.4989
  12   1.0000      -4.023877      -109.4953
  13   1.0000      -4.021974      -109.4435
  14   1.0000      -4.021393      -109.4277
  15   1.0000      -4.019735      -109.3826
  16   1.0000      -4.014023      -109.2271
  17   1.0000      -3.112251       -84.6887
  18   1.0000      -2.257288       -61.4239
  19   1.0000      -2.254134       -61.3381
  20   1.0000      -2.250777       -61.2468
  21   1.0000      -2.250408       -61.2367
  22   1.0000      -2.249249       -61.2052
  23   1.0000      -2.248994       -61.1982
  24   1.0000      -2.248593       -61.1873
  25   1.0000      -2.247230       -61.1502
  26   1.0000      -2.246752       -61.1372
  27   1.0000      -2.244058       -61.0639
  28   1.0000      -2.243950       -61.0610
  29   1.0000      -2.242380       -61.0183
  30   1.0000      -2.241964       -61.0069
  31   1.0000      -2.240751       -60.9739
  32   1.0000      -2.240182       -60.9585
  33   1.0000      -2.239405       -60.9373
  34   1.0000      -2.238887       -60.9232
  35   1.0000      -2.238722       -60.9187
  36   1.0000      -2.238238       -60.9055
  37   1.0000      -2.238005       -60.8992
  38   1.0000      -2.237704       -60.8910
  39   1.0000      -2.236433       -60.8564
  40   1.0000      -2.236236       -60.8511
  41   1.0000      -2.235927       -60.8427
  42   1.0000      -2.234621       -60.8071
  43   1.0000      -2.234180       -60.7951
  44   1.0000      -2.233885       -60.7871
  45   1.0000      -2.233381       -60.7734
  46   1.0000      -2.233010       -60.7633
  47   1.0000      -2.231893       -60.7329
  48   1.0000      -2.231481       -60.7217
  49   1.0000      -2.230223       -60.6875
  50   1.0000      -2.229792       -60.6757
  51   1.0000      -2.228525       -60.6413
  52   1.0000      -2.225761       -60.5660
  53   1.0000      -2.223802       -60.5127
  54   1.0000      -2.017775       -54.9065
  55   1.0000      -2.014093       -54.8063
  56   1.0000      -2.012574       -54.7649
  57   1.0000      -0.424146       -11.5416
  58   1.0000      -0.387613       -10.5475
  59   1.0000      -0.385285       -10.4841
  60   1.0000      -0.379159       -10.3174
  61   1.0000      -0.367938       -10.0121
  62   1.0000      -0.366618        -9.9762
  63   1.0000      -0.363020        -9.8783
  64   1.0000      -0.362049        -9.8519
  65   1.0000      -0.358298        -9.7498
  66   1.0000      -0.356189        -9.6924
  67   1.0000      -0.351006        -9.5514
  68   1.0000      -0.347367        -9.4523
  69   1.0000      -0.345790        -9.4094
  70   1.0000      -0.342170        -9.3109
  71   1.0000      -0.339549        -9.2396
  72   1.0000      -0.338520        -9.2116
  73   1.0000      -0.335834        -9.1385
  74   1.0000      -0.331296        -9.0150
  75   1.0000      -0.329325        -8.9614
  76   1.0000      -0.327698        -8.9171
  77   1.0000      -0.326387        -8.8815
  78   1.0000      -0.325657        -8.8616
  79   1.0000      -0.322030        -8.7629
  80   1.0000      -0.319293        -8.6884
  81   1.0000      -0.317178        -8.6308
  82   1.0000      -0.312443        -8.5020
  83   1.0000      -0.309864        -8.4318
  84   1.0000      -0.308562        -8.3964
  85   1.0000      -0.307916        -8.3788
  86   1.0000      -0.305013        -8.2998
  87   1.0000      -0.301157        -8.1949
  88   1.0000      -0.299388        -8.1468
  89   1.0000      -0.297564        -8.0971
  90   1.0000      -0.293764        -7.9937
  91   1.0000      -0.290888        -7.9155
  92   1.0000      -0.290104        -7.8941
  93   1.0000      -0.285695        -7.7741
  94   1.0000      -0.284998        -7.7552
  95   1.0000      -0.280719        -7.6387
  96   1.0000      -0.279568        -7.6074
  97   1.0000      -0.278624        -7.5818
  98   1.0000      -0.277410        -7.5487
  99   1.0000      -0.274039        -7.4570
 100   1.0000      -0.272711        -7.4208
 101   1.0000      -0.271919        -7.3993
 102   1.0000      -0.269640        -7.3373
 103   1.0000      -0.269207        -7.3255
 104   1.0000      -0.265946        -7.2367
 105   1.0000      -0.262201        -7.1349
 106   1.0000      -0.260902        -7.0995
 107   1.0000      -0.259881        -7.0717
 108   1.0000      -0.258881        -7.0445
 109   1.0000      -0.257675        -7.0117
 110   1.0000      -0.256500        -6.9797
 111   1.0000      -0.255919        -6.9639
 112   1.0000      -0.254352        -6.9213
 113   1.0000      -0.253061        -6.8861
 114   1.0000      -0.251761        -6.8508
 115   1.0000      -0.250697        -6.8218
 116   1.0000      -0.249029        -6.7764
 117   1.0000      -0.248608        -6.7650
 118   1.0000      -0.248205        -6.7540
 119   1.0000      -0.244738        -6.6596
 120   1.0000      -0.244673        -6.6579
 121   1.0000      -0.243170        -6.6170
 122   1.0000      -0.242125        -6.5886
 123   1.0000      -0.233838        -6.3630
 124   1.0000      -0.233156        -6.3445
 125   1.0000      -0.232474        -6.3259
 126   1.0000      -0.208963        -5.6862
 127   1.0000      -0.198487        -5.4011
 128   1.0000      -0.197200        -5.3661
 129   0.0000      -0.167430        -4.5560
 130   0.0000      -0.158632        -4.3166
 131   0.0000      -0.130866        -3.5610
 132   0.0000      -0.125351        -3.4110
 133   0.0000      -0.116534        -3.1711

                 SPIN DOWN ORBITALS
  NO   OCC          E(Eh)            E(eV)
   0   1.0000    -234.203537     -6373.0022
   1   1.0000     -26.831539      -730.1233
   2   1.0000     -22.996978      -625.7796
   3   1.0000     -22.996078      -625.7551
   4   1.0000     -22.995368      -625.7358
   5   1.0000      -4.037432      -109.8641
   6   1.0000      -4.036508      -109.8390
   7   1.0000      -4.033330      -109.7525
   8   1.0000      -4.029238      -109.6411
   9   1.0000      -4.028383      -109.6179
  10   1.0000      -4.023300      -109.4796
  11   1.0000      -4.022969      -109.4705
  12   1.0000      -4.022674      -109.4625
  13   1.0000      -4.020890      -109.4140
  14   1.0000      -4.020113      -109.3928
  15   1.0000      -4.019527      -109.3769
  16   1.0000      -4.013743      -109.2195
  17   1.0000      -2.944162       -80.1147
  18   1.0000      -2.256287       -61.3967
  19   1.0000      -2.253170       -61.3119
  20   1.0000      -2.249905       -61.2230
  21   1.0000      -2.249118       -61.2016
  22   1.0000      -2.248140       -61.1750
  23   1.0000      -2.247718       -61.1635
  24   1.0000      -2.247621       -61.1609
  25   1.0000      -2.246571       -61.1323
  26   1.0000      -2.245806       -61.1115
  27   1.0000      -2.243308       -61.0435
  28   1.0000      -2.242915       -61.0328
  29   1.0000      -2.241853       -61.0039
  30   1.0000      -2.240870       -60.9772
  31   1.0000      -2.239704       -60.9454
  32   1.0000      -2.238930       -60.9244
  33   1.0000      -2.238271       -60.9064
  34   1.0000      -2.238077       -60.9012
  35   1.0000      -2.237924       -60.8970
  36   1.0000      -2.236883       -60.8687
  37   1.0000      -2.236503       -60.8584
  38   1.0000      -2.236323       -60.8534
  39   1.0000      -2.235734       -60.8374
  40   1.0000      -2.235034       -60.8184
  41   1.0000      -2.234504       -60.8040
  42   1.0000      -2.233550       -60.7780
  43   1.0000      -2.233270       -60.7704
  44   1.0000      -2.233004       -60.7631
  45   1.0000      -2.232764       -60.7566
  46   1.0000      -2.232163       -60.7402
  47   1.0000      -2.230964       -60.7076
  48   1.0000      -2.230469       -60.6942
  49   1.0000      -2.229787       -60.6756
  50   1.0000      -2.228707       -60.6462
  51   1.0000      -2.228274       -60.6344
  52   1.0000      -2.225527       -60.5597
  53   1.0000      -2.223554       -60.5060
  54   1.0000      -1.850949       -50.3669
  55   1.0000      -1.849468       -50.3266
  56   1.0000      -1.848814       -50.3088
  57   1.0000      -0.417717       -11.3667
  58   1.0000      -0.383846       -10.4450
  59   1.0000      -0.380326       -10.3492
  60   1.0000      -0.376151       -10.2356
  61   1.0000      -0.364414        -9.9162
  62   1.0000      -0.361056        -9.8248
  63   1.0000      -0.360050        -9.7975
  64   1.0000      -0.355181        -9.6650
  65   1.0000      -0.354264        -9.6400
  66   1.0000      -0.352822        -9.6008
  67   1.0000      -0.347934        -9.4678
  68   1.0000      -0.345254        -9.3948
  69   1.0000      -0.342880        -9.3302
  70   1.0000      -0.337896        -9.1946
  71   1.0000      -0.337418        -9.1816
  72   1.0000      -0.335175        -9.1206
  73   1.0000      -0.330942        -9.0054
  74   1.0000      -0.328593        -8.9415
  75   1.0000      -0.327033        -8.8990
  76   1.0000      -0.324856        -8.8398
  77   1.0000      -0.322071        -8.7640
  78   1.0000      -0.320231        -8.7139
  79   1.0000      -0.317063        -8.6277
  80   1.0000      -0.315103        -8.5744
  81   1.0000      -0.312044        -8.4912
  82   1.0000      -0.308582        -8.3969
  83   1.0000      -0.304597        -8.2885
  84   1.0000      -0.303511        -8.2590
  85   1.0000      -0.302007        -8.2180
  86   1.0000      -0.300461        -8.1760
  87   1.0000      -0.297747        -8.1021
  88   1.0000      -0.295119        -8.0306
  89   1.0000      -0.292310        -7.9542
  90   1.0000      -0.289355        -7.8737
  91   1.0000      -0.288796        -7.8585
  92   1.0000      -0.287427        -7.8213
  93   1.0000      -0.283043        -7.7020
  94   1.0000      -0.280825        -7.6416
  95   1.0000      -0.278709        -7.5840
  96   1.0000      -0.277347        -7.5470
  97   1.0000      -0.275063        -7.4848
  98   1.0000      -0.274415        -7.4672
  99   1.0000      -0.271934        -7.3997
 100   1.0000      -0.271274        -7.3818
 101   1.0000      -0.268867        -7.3163
 102   1.0000      -0.267256        -7.2724
 103   1.0000      -0.266386        -7.2487
 104   1.0000      -0.264261        -7.1909
 105   1.0000      -0.260172        -7.0796
 106   1.0000      -0.258965        -7.0468
 107   1.0000      -0.257694        -7.0122
 108   1.0000      -0.255777        -6.9601
 109   1.0000      -0.255134        -6.9425
 110   1.0000      -0.254162        -6.9161
 111   1.0000      -0.252101        -6.8600
 112   1.0000      -0.251058        -6.8316
 113   1.0000      -0.249323        -6.7844
 114   1.0000      -0.248184        -6.7534
 115   1.0000      -0.247212        -6.7270
 116   1.0000      -0.246518        -6.7081
 117   1.0000      -0.243289        -6.6202
 118   1.0000      -0.236082        -6.4241
 119   1.0000      -0.234341        -6.3768
 120   1.0000      -0.232958        -6.3391
 121   1.0000      -0.214390        -5.8338
 122   1.0000      -0.206186        -5.6106
 123   1.0000      -0.202995        -5.5238
 124   0.0000      -0.174522        -4.7490
 125   0.0000      -0.160731        -4.3737
 126   0.0000      -0.142397        -3.8748
 127   0.0000      -0.135077        -3.6756
 128   0.0000      -0.129027        -3.5110

MULLIKEN ATOMIC CHARGES AND SPIN POPULATIONS
--------------------------------------------
   0 Au:    0.232423    0.064339
   1 Au:    0.074625    0.066098
   2 Au:   -0.060444    0.018303
   3 Au:    0.038038    0.022690
   4 Au:    0.274403    0.037212
   5 Au:    0.217503    0.070449
   6 Au:    0.131851    0.076200
   7 Au:    0.279315    0.068179
   8 Au:    0.187846    0.035725
   9 Au:    0.078646    0.044319
  10 Au:    0.371195    0.078867
  11 Au:   -0.188514    0.054052
  12 Mn:   -1.636889    4.363567
Sum of atomic charges         :   -0.0000000

LOEWDIN ATOMIC CHARGES AND SPIN POPULATIONS
-------------------------------------------
   0 Au:    0.059389    0.055003
   1 Au:    0.006102    0.061839
   2 Au:   -0.010364    0.042505
   3 Au:   -0.000171    0.046879
   4 Au:    0.069852    0.037639
   5 Au:    0.060252    0.063697
   6 Au:    0.018488    0.069438
   7 Au:    0.038396    0.051773
   8 Au:    0.077852    0.048460
   9 Au:    0.011229    0.059741
  10 Au:    0.081889    0.062027
  11 Au:   -0.059178    0.047987
  12 Mn:   -0.353735    4.353010

  Mayer bond orders larger than 0.100000
B(  0-Au,  1-Au) :   0.2908 B(  0-Au,  4-Au) :   0.2192 B(  0-Au,  5-Au) :   0.2453
B(  0-Au, 12-Mn) :   0.4467 B(  1-Au,  3-Au) :   0.2037 B(  1-Au,  7-Au) :   0.2524
B(  1-Au,  8-Au) :   0.1982 B(  1-Au, 12-Mn) :   0.4775 B(  2-Au,  3-Au) :   0.3471
B(  2-Au,  4-Au) :   0.3682 B(  2-Au,  6-Au) :   0.2971 B(  2-Au, 10-Au) :   0.3309
B(  2-Au, 11-Au) :   0.1658 B(  2-Au, 12-Mn) :   0.3547 B(  3-Au,  4-Au) :   0.3153
B(  3-Au,  7-Au) :   0.3830 B(  3-Au, 11-Au) :   0.2609 B(  3-Au, 12-Mn) :   0.2912
B(  4-Au,  5-Au) :   0.1367 B(  4-Au, 12-Mn) :   0.5285 B(  5-Au,  6-Au) :   0.3430
B(  5-Au, 12-Mn) :   0.5345 B(  6-Au,  9-Au) :   0.1019 B(  6-Au, 10-Au) :   0.2462
B(  6-Au, 12-Mn) :   0.4394 B(  7-Au,  8-Au) :   0.1645 B(  7-Au, 11-Au) :   0.4230
B(  7-Au, 12-Mn) :   0.1137 B(  8-Au,  9-Au) :   0.4606 B(  8-Au, 12-Mn) :   0.5383
B(  9-Au, 10-Au) :   0.2722 B(  9-Au, 11-Au) :   0.2779 B(  9-Au, 12-Mn) :   0.5044
B( 10-Au, 11-Au) :   0.3122 B( 11-Au, 12-Mn) :   0.2056

FINAL SINGLE POINT ENERGY     -2780.694398316039

DIPOLE MOMENT
-------------
                                X             Y             Z
Electronic contribution:    -19.70663       4.24374     -26.66231
Nuclear contribution   :     19.74587      -4.13074      26.60290
                        -----------------------------------------
Total Dipole Moment    :      0.03925       0.11301      -0.05941
                        -----------------------------------------
Magnitude (a.u.)       :      0.13356
Magnitude (Debye)      :      0.33949

Rotational constants in cm-1:     0.001446     0.001377     0.001022
Rotational constants in MHz :    43.360742    41.292774    30.650841

                             ****ORCA TERMINATED NORMALLY****
TOTAL RUN TIME: 0 days 7 hours 13 minutes 24 seconds 257 msec
