                         Program Version 5.0.3 -  RELEASE  -
|  1> %pal nprocs 1 end
|  2>
|  3> !PBE def2-TZVP OPT UNO
|  4> !SLOWCONV KDIIS
|  5>
|  6> %geom maxiter 300 end
|  7>
|  8> *xyzfile 0 5 7.xyz                           ****END OF INPUT****
 Total Charge           Charge          ....    0
 Multiplicity           Mult            ....    5
 Number of Electrons    NEL             ....  214
FINAL SINGLE POINT ENERGY     -2402.452142810890
FINAL SINGLE POINT ENERGY     -2402.453588069352
FINAL SINGLE POINT ENERGY     -2402.454997068503
FINAL SINGLE POINT ENERGY     -2402.455425620922
FINAL SINGLE POINT ENERGY     -2402.456031581198
FINAL SINGLE POINT ENERGY     -2402.456610279855
FINAL SINGLE POINT ENERGY     -2402.457226887937
FINAL SINGLE POINT ENERGY     -2402.457594444355
FINAL SINGLE POINT ENERGY     -2402.458332368471
FINAL SINGLE POINT ENERGY     -2402.459128333847
FINAL SINGLE POINT ENERGY     -2402.496416493013
FINAL SINGLE POINT ENERGY     -2402.496448662087
FINAL SINGLE POINT ENERGY     -2402.496467784925
FINAL SINGLE POINT ENERGY     -2402.496479722098
FINAL SINGLE POINT ENERGY     -2402.496488075187
FINAL SINGLE POINT ENERGY     -2402.496493848663
FINAL SINGLE POINT ENERGY     -2402.496495866532
FINAL SINGLE POINT ENERGY     -2402.496498464788
FINAL SINGLE POINT ENERGY     -2402.496499420078
                    ***********************HURRAY********************

CARTESIAN COORDINATES (ANGSTROEM)
---------------------------------
  Au     8.271235    3.308823    9.118818
  Au     6.729413    6.482671    7.353407
  Au     8.861502    8.086699    7.997703
  Au     9.276657    5.408837    7.562339
  Au     5.750194    4.360582    8.901488
  Au     5.278148    6.917276    9.845733
  Au    10.030211    7.470510   10.567051
  Au     9.504035   10.056450    9.846151
  Au     7.224157    8.627940   10.322120
  Au    10.255285    4.863289   10.263011
  Cr     7.824201    5.971014    9.801352

 Multiplicity           Mult            ....    5
 Number of Electrons    NEL             ....  214
 Basis Dimension        Dim             ....  445

ORBITAL ENERGIES
----------------
                 SPIN UP ORBITALS
  NO   OCC          E(Eh)            E(eV)
   0   1.0000    -214.478439     -5836.2550
   1   1.0000     -24.277345      -660.6201
   2   1.0000     -20.642076      -561.6994
   3   1.0000     -20.641643      -561.6877
   4   1.0000     -20.637158      -561.5656
   5   1.0000      -4.026116      -109.5562
   6   1.0000      -4.025441      -109.5378
   7   1.0000      -4.025313      -109.5343
   8   1.0000      -4.021845      -109.4400
   9   1.0000      -4.021809      -109.4390
  10   1.0000      -4.020225      -109.3959
  11   1.0000      -4.020030      -109.3906
  12   1.0000      -4.019365      -109.3725
  13   1.0000      -4.017327      -109.3170
  14   1.0000      -4.017107      -109.3110
  15   1.0000      -2.787201       -75.8436
  16   1.0000      -2.245550       -61.1045
  17   1.0000      -2.242023       -61.0085
  18   1.0000      -2.241313       -60.9892
  19   1.0000      -2.241154       -60.9849
  20   1.0000      -2.240822       -60.9759
  21   1.0000      -2.239503       -60.9400
  22   1.0000      -2.239282       -60.9340
  23   1.0000      -2.238040       -60.9002
  24   1.0000      -2.236620       -60.8615
  25   1.0000      -2.236222       -60.8507
  26   1.0000      -2.235837       -60.8402
  27   1.0000      -2.235380       -60.8278
  28   1.0000      -2.235101       -60.8202
  29   1.0000      -2.235076       -60.8195
  30   1.0000      -2.234724       -60.8099
  31   1.0000      -2.234461       -60.8028
  32   1.0000      -2.234005       -60.7904
  33   1.0000      -2.233751       -60.7835
  34   1.0000      -2.232372       -60.7459
  35   1.0000      -2.231486       -60.7218
  36   1.0000      -2.231193       -60.7139
  37   1.0000      -2.230111       -60.6844
  38   1.0000      -2.229682       -60.6727
  39   1.0000      -2.229344       -60.6635
  40   1.0000      -2.229171       -60.6588
  41   1.0000      -2.228636       -60.6443
  42   1.0000      -2.228502       -60.6406
  43   1.0000      -2.228129       -60.6305
  44   1.0000      -2.227082       -60.6020
  45   1.0000      -2.226684       -60.5912
  46   1.0000      -1.779986       -48.4359
  47   1.0000      -1.778264       -48.3890
  48   1.0000      -1.773563       -48.2611
  49   1.0000      -0.410134       -11.1603
  50   1.0000      -0.381198       -10.3729
  51   1.0000      -0.372781       -10.1439
  52   1.0000      -0.365481        -9.9453
  53   1.0000      -0.359434        -9.7807
  54   1.0000      -0.357916        -9.7394
  55   1.0000      -0.353242        -9.6122
  56   1.0000      -0.348534        -9.4841
  57   1.0000      -0.345464        -9.4005
  58   1.0000      -0.336625        -9.1600
  59   1.0000      -0.335184        -9.1208
  60   1.0000      -0.331093        -9.0095
  61   1.0000      -0.328416        -8.9366
  62   1.0000      -0.327245        -8.9048
  63   1.0000      -0.321207        -8.7405
  64   1.0000      -0.320707        -8.7269
  65   1.0000      -0.319541        -8.6952
  66   1.0000      -0.315999        -8.5988
  67   1.0000      -0.313787        -8.5386
  68   1.0000      -0.312844        -8.5129
  69   1.0000      -0.306359        -8.3365
  70   1.0000      -0.305180        -8.3044
  71   1.0000      -0.299138        -8.1400
  72   1.0000      -0.297355        -8.0914
  73   1.0000      -0.294123        -8.0035
  74   1.0000      -0.293460        -7.9855
  75   1.0000      -0.289311        -7.8725
  76   1.0000      -0.286720        -7.8020
  77   1.0000      -0.283323        -7.7096
  78   1.0000      -0.282958        -7.6997
  79   1.0000      -0.279431        -7.6037
  80   1.0000      -0.279315        -7.6006
  81   1.0000      -0.275682        -7.5017
  82   1.0000      -0.275561        -7.4984
  83   1.0000      -0.271047        -7.3756
  84   1.0000      -0.269293        -7.3278
  85   1.0000      -0.268178        -7.2975
  86   1.0000      -0.267628        -7.2825
  87   1.0000      -0.267061        -7.2671
  88   1.0000      -0.262878        -7.1533
  89   1.0000      -0.260059        -7.0766
  90   1.0000      -0.257347        -7.0028
  91   1.0000      -0.257032        -6.9942
  92   1.0000      -0.255878        -6.9628
  93   1.0000      -0.250855        -6.8261
  94   1.0000      -0.250771        -6.8238
  95   1.0000      -0.250006        -6.8030
  96   1.0000      -0.248671        -6.7667
  97   1.0000      -0.245466        -6.6795
  98   1.0000      -0.241336        -6.5671
  99   1.0000      -0.238497        -6.4898
 100   1.0000      -0.237334        -6.4582
 101   1.0000      -0.229941        -6.2570
 102   1.0000      -0.229635        -6.2487
 103   1.0000      -0.218099        -5.9348
 104   1.0000      -0.209861        -5.7106
 105   1.0000      -0.202434        -5.5085
 106   1.0000      -0.199955        -5.4411
 107   1.0000      -0.190712        -5.1895
 108   1.0000      -0.186683        -5.0799
 109   0.0000      -0.164756        -4.4832
 110   0.0000      -0.145561        -3.9609
 111   0.0000      -0.143517        -3.9053
 112   0.0000      -0.140707        -3.8288
 113   0.0000      -0.107652        -2.9294

                 SPIN DOWN ORBITALS
  NO   OCC          E(Eh)            E(eV)
   0   1.0000    -214.477972     -5836.2423
   1   1.0000     -24.227773      -659.2712
   2   1.0000     -20.606565      -560.7332
   3   1.0000     -20.605126      -560.6940
   4   1.0000     -20.595568      -560.4339
   5   1.0000      -4.025316      -109.5344
   6   1.0000      -4.024453      -109.5109
   7   1.0000      -4.024324      -109.5074
   8   1.0000      -4.020897      -109.4142
   9   1.0000      -4.020856      -109.4131
  10   1.0000      -4.019266      -109.3698
  11   1.0000      -4.019089      -109.3650
  12   1.0000      -4.019056      -109.3641
  13   1.0000      -4.016736      -109.3009
  14   1.0000      -4.016516      -109.2949
  15   1.0000      -2.652488       -72.1779
  16   1.0000      -2.244481       -61.0754
  17   1.0000      -2.240980       -60.9802
  18   1.0000      -2.240134       -60.9572
  19   1.0000      -2.240057       -60.9550
  20   1.0000      -2.239796       -60.9480
  21   1.0000      -2.238381       -60.9094
  22   1.0000      -2.237946       -60.8976
  23   1.0000      -2.236981       -60.8713
  24   1.0000      -2.235948       -60.8432
  25   1.0000      -2.235467       -60.8302
  26   1.0000      -2.235064       -60.8192
  27   1.0000      -2.234157       -60.7945
  28   1.0000      -2.233978       -60.7896
  29   1.0000      -2.233782       -60.7843
  30   1.0000      -2.233720       -60.7826
  31   1.0000      -2.233450       -60.7753
  32   1.0000      -2.233033       -60.7639
  33   1.0000      -2.232918       -60.7608
  34   1.0000      -2.231697       -60.7276
  35   1.0000      -2.230607       -60.6979
  36   1.0000      -2.230422       -60.6929
  37   1.0000      -2.229684       -60.6728
  38   1.0000      -2.229524       -60.6684
  39   1.0000      -2.228575       -60.6426
  40   1.0000      -2.228424       -60.6385
  41   1.0000      -2.227882       -60.6238
  42   1.0000      -2.227743       -60.6200
  43   1.0000      -2.227625       -60.6168
  44   1.0000      -2.226483       -60.5857
  45   1.0000      -2.226080       -60.5747
  46   1.0000      -1.654094       -45.0102
  47   1.0000      -1.650244       -44.9054
  48   1.0000      -1.628732       -44.3201
  49   1.0000      -0.404149       -10.9974
  50   1.0000      -0.377942       -10.2843
  51   1.0000      -0.369195       -10.0463
  52   1.0000      -0.363266        -9.8850
  53   1.0000      -0.356117        -9.6904
  54   1.0000      -0.355333        -9.6691
  55   1.0000      -0.350821        -9.5463
  56   1.0000      -0.344226        -9.3669
  57   1.0000      -0.342841        -9.3292
  58   1.0000      -0.335043        -9.1170
  59   1.0000      -0.333215        -9.0672
  60   1.0000      -0.329283        -8.9602
  61   1.0000      -0.326641        -8.8883
  62   1.0000      -0.325583        -8.8596
  63   1.0000      -0.320496        -8.7211
  64   1.0000      -0.320222        -8.7137
  65   1.0000      -0.316929        -8.6241
  66   1.0000      -0.313995        -8.5442
  67   1.0000      -0.311384        -8.4732
  68   1.0000      -0.310309        -8.4439
  69   1.0000      -0.304872        -8.2960
  70   1.0000      -0.302414        -8.2291
  71   1.0000      -0.297134        -8.0854
  72   1.0000      -0.295719        -8.0469
  73   1.0000      -0.290533        -7.9058
  74   1.0000      -0.288541        -7.8516
  75   1.0000      -0.287915        -7.8346
  76   1.0000      -0.285624        -7.7722
  77   1.0000      -0.282361        -7.6834
  78   1.0000      -0.282227        -7.6798
  79   1.0000      -0.278169        -7.5694
  80   1.0000      -0.277311        -7.5460
  81   1.0000      -0.274565        -7.4713
  82   1.0000      -0.274162        -7.4603
  83   1.0000      -0.270333        -7.3561
  84   1.0000      -0.268263        -7.2998
  85   1.0000      -0.268235        -7.2991
  86   1.0000      -0.267141        -7.2693
  87   1.0000      -0.266921        -7.2633
  88   1.0000      -0.260962        -7.1011
  89   1.0000      -0.259836        -7.0705
  90   1.0000      -0.257052        -6.9947
  91   1.0000      -0.256432        -6.9779
  92   1.0000      -0.254858        -6.9350
  93   1.0000      -0.249920        -6.8007
  94   1.0000      -0.249750        -6.7961
  95   1.0000      -0.249204        -6.7812
  96   1.0000      -0.247639        -6.7386
  97   1.0000      -0.244903        -6.6642
  98   1.0000      -0.239787        -6.5249
  99   1.0000      -0.238681        -6.4948
 100   1.0000      -0.236923        -6.4470
 101   1.0000      -0.228916        -6.2291
 102   1.0000      -0.225342        -6.1319
 103   1.0000      -0.211493        -5.7550
 104   1.0000      -0.196442        -5.3454
 105   0.0000      -0.154587        -4.2065
 106   0.0000      -0.151786        -4.1303
 107   0.0000      -0.146144        -3.9768
 108   0.0000      -0.107541        -2.9263
 109   0.0000      -0.100448        -2.7333

MULLIKEN ATOMIC CHARGES AND SPIN POPULATIONS
--------------------------------------------
   0 Au:    0.302884   -0.032521
   1 Au:    0.146046    0.034822
   2 Au:   -0.017111    0.029080
   3 Au:    0.145100    0.034352
   4 Au:    0.298916   -0.035326
   5 Au:    0.375814    0.025745
   6 Au:    0.100264   -0.061576
   7 Au:    0.352939    0.137245
   8 Au:    0.093352   -0.061881
   9 Au:    0.370736    0.026353
  10 Cr:   -2.168940    3.903707
Sum of atomic charges         :   -0.0000000

LOEWDIN ATOMIC CHARGES AND SPIN POPULATIONS
-------------------------------------------
   0 Au:    0.087694   -0.010350
   1 Au:    0.076628    0.036009
   2 Au:    0.002345    0.045415
   3 Au:    0.076631    0.036325
   4 Au:    0.086837   -0.011611
   5 Au:    0.121098    0.015604
   6 Au:    0.026537    0.004874
   7 Au:    0.123502    0.076357
   8 Au:    0.025144    0.005250
   9 Au:    0.119969    0.016642
  10 Cr:   -0.746385    3.785485

  Mayer bond orders larger than 0.100000
B(  0-Au,  3-Au) :   0.2414 B(  0-Au,  4-Au) :   0.3159 B(  0-Au,  9-Au) :   0.2376
B(  0-Au, 10-Cr) :   0.5672 B(  1-Au,  2-Au) :   0.3760 B(  1-Au,  3-Au) :   0.3263
B(  1-Au,  4-Au) :   0.2393 B(  1-Au,  5-Au) :   0.1506 B(  1-Au, 10-Cr) :   0.4780
B(  2-Au,  3-Au) :   0.3769 B(  2-Au,  6-Au) :   0.2148 B(  2-Au,  7-Au) :   0.3533
B(  2-Au,  8-Au) :   0.2136 B(  2-Au, 10-Cr) :   0.2645 B(  3-Au,  9-Au) :   0.1501
B(  3-Au, 10-Cr) :   0.4797 B(  4-Au,  5-Au) :   0.2379 B(  4-Au, 10-Cr) :   0.5740
B(  5-Au,  8-Au) :   0.4603 B(  5-Au, 10-Cr) :   0.6286 B(  6-Au,  7-Au) :   0.3517
B(  6-Au,  8-Au) :   0.1075 B(  6-Au,  9-Au) :   0.4573 B(  6-Au, 10-Cr) :   0.6598
B(  7-Au,  8-Au) :   0.3569 B(  7-Au, 10-Cr) :   0.1391 B(  8-Au, 10-Cr) :   0.6634
B(  9-Au, 10-Cr) :   0.6337

FINAL SINGLE POINT ENERGY     -2402.496500905473

DIPOLE MOMENT
-------------
                                X             Y             Z
Electronic contribution:     10.31338      20.58772     -22.02934
Nuclear contribution   :    -10.27170     -20.52690      21.79480
                        -----------------------------------------
Total Dipole Moment    :      0.04168       0.06083      -0.23454
                        -----------------------------------------
Magnitude (a.u.)       :      0.24586
Magnitude (Debye)      :      0.62492

Rotational constants in cm-1:     0.002236     0.001585     0.001234
Rotational constants in MHz :    67.044469    47.528616    36.999747

                             ****ORCA TERMINATED NORMALLY****
TOTAL RUN TIME: 0 days 5 hours 2 minutes 31 seconds 36 msec
