                         Program Version 5.0.3 -  RELEASE  -
|  1> !RI-B2PLYP def2-TZVP def2-TZVP/C
|  2> !RIJCOSX VERYSLOWCONV
|  3>
|  4> %scf
|  5>   AutoTRAHIter 200
|  6>   maxiter 400
|  7> end
|  8>
|  9>
| 10> %pal nprocs 6 end
| 11>
| 12> *xyzfile 0 5 pbe.xyz
| 13>
| 14> $new_job
| 15>
| 16> !RI-B2PLYP def2-TZVP def2-TZVP/C
| 17> !RIJCOSX VERYSLOWCONV
| 18>
| 19> %scf
| 20>   AutoTRAHIter 200
| 21>   maxiter 400
| 22> end
| 23>
| 24>
| 25> %pal nprocs 6 end
| 26>
| 27> *xyzfile 0 3 pbe.xyz
| 28>
| 29>
| 30>
| 31>
| 32>
| 33>                          ****END OF INPUT****
 Total Charge           Charge          ....    0
 Multiplicity           Mult            ....    5
 Number of Electrons    NEL             ....  214
MP2 TOTAL ENERGY:    -2400.107244146 Eh
FINAL SINGLE POINT ENERGY     -2400.107244145843

CARTESIAN COORDINATES (ANGSTROEM)
---------------------------------
  Au     8.617435    9.195463    9.366982
  Au     8.791198    6.654736    6.597243
  Au     9.870614    4.599887    7.922189
  Au    10.674992    5.462947   10.447213
  Au     9.302329    7.739370   11.503343
  Au     7.349214    8.924376    6.935830
  Au     6.143952    7.727296    9.110550
  Au     6.766620    6.212577   11.225358
  Au     8.936677    5.227401   12.677518
  Au     8.315775    4.031615   10.172234
  Cr     8.504639    6.575100    9.186037

 Multiplicity           Mult            ....    3
 Number of Electrons    NEL             ....  214
 Basis Dimension        Dim             ....  445

ORBITAL ENERGIES
----------------
                 SPIN UP ORBITALS
  NO   OCC          E(Eh)            E(eV)
   0   1.0000    -217.771878     -5925.8741
   1   1.0000     -25.461577      -692.8447
   2   1.0000     -21.602029      -587.8211
   3   1.0000     -21.599355      -587.7483
   4   1.0000     -21.594977      -587.6292
   5   1.0000      -4.400383      -119.7405
   6   1.0000      -4.396959      -119.6473
   7   1.0000      -4.394616      -119.5836
   8   1.0000      -4.394517      -119.5809
   9   1.0000      -4.394419      -119.5782
  10   1.0000      -4.394084      -119.5691
  11   1.0000      -4.389409      -119.4419
  12   1.0000      -4.389267      -119.4380
  13   1.0000      -4.389072      -119.4327
  14   1.0000      -4.388740      -119.4237
  15   1.0000      -3.247585       -88.3713
  16   1.0000      -2.521844       -68.6229
  17   1.0000      -2.520415       -68.5840
  18   1.0000      -2.516700       -68.4829
  19   1.0000      -2.516292       -68.4718
  20   1.0000      -2.516032       -68.4647
  21   1.0000      -2.515800       -68.4584
  22   1.0000      -2.515328       -68.4455
  23   1.0000      -2.514566       -68.4248
  24   1.0000      -2.514501       -68.4230
  25   1.0000      -2.513493       -68.3956
  26   1.0000      -2.512600       -68.3713
  27   1.0000      -2.511892       -68.3521
  28   1.0000      -2.511202       -68.3333
  29   1.0000      -2.510892       -68.3249
  30   1.0000      -2.510501       -68.3142
  31   1.0000      -2.509528       -68.2877
  32   1.0000      -2.508991       -68.2731
  33   1.0000      -2.508189       -68.2513
  34   1.0000      -2.508088       -68.2486
  35   1.0000      -2.507762       -68.2397
  36   1.0000      -2.506866       -68.2153
  37   1.0000      -2.506701       -68.2108
  38   1.0000      -2.506460       -68.2043
  39   1.0000      -2.505687       -68.1832
  40   1.0000      -2.505352       -68.1741
  41   1.0000      -2.505177       -68.1693
  42   1.0000      -2.503770       -68.1311
  43   1.0000      -2.502724       -68.1026
  44   1.0000      -2.502299       -68.0910
  45   1.0000      -2.500800       -68.0502
  46   1.0000      -2.138133       -58.1815
  47   1.0000      -2.129893       -57.9573
  48   1.0000      -2.125445       -57.8363
  49   1.0000      -0.491938       -13.3863
  50   1.0000      -0.484018       -13.1708
  51   1.0000      -0.468265       -12.7421
  52   1.0000      -0.460052       -12.5187
  53   1.0000      -0.453232       -12.3331
  54   1.0000      -0.450462       -12.2577
  55   1.0000      -0.449900       -12.2424
  56   1.0000      -0.449138       -12.2217
  57   1.0000      -0.448559       -12.2059
  58   1.0000      -0.444847       -12.1049
  59   1.0000      -0.443583       -12.0705
  60   1.0000      -0.437547       -11.9063
  61   1.0000      -0.434896       -11.8341
  62   1.0000      -0.434349       -11.8192
  63   1.0000      -0.427738       -11.6393
  64   1.0000      -0.426074       -11.5941
  65   1.0000      -0.422329       -11.4921
  66   1.0000      -0.419778       -11.4227
  67   1.0000      -0.417705       -11.3663
  68   1.0000      -0.412978       -11.2377
  69   1.0000      -0.407409       -11.0862
  70   1.0000      -0.407330       -11.0840
  71   1.0000      -0.401283       -10.9195
  72   1.0000      -0.400243       -10.8912
  73   1.0000      -0.399256       -10.8643
  74   1.0000      -0.395736       -10.7685
  75   1.0000      -0.389750       -10.6056
  76   1.0000      -0.387326       -10.5397
  77   1.0000      -0.386201       -10.5091
  78   1.0000      -0.381334       -10.3766
  79   1.0000      -0.378423       -10.2974
  80   1.0000      -0.378143       -10.2898
  81   1.0000      -0.375151       -10.2084
  82   1.0000      -0.370620       -10.0851
  83   1.0000      -0.368695       -10.0327
  84   1.0000      -0.367741       -10.0067
  85   1.0000      -0.363645        -9.8953
  86   1.0000      -0.362526        -9.8648
  87   1.0000      -0.361584        -9.8392
  88   1.0000      -0.358461        -9.7542
  89   1.0000      -0.357872        -9.7382
  90   1.0000      -0.356331        -9.6962
  91   1.0000      -0.353385        -9.6161
  92   1.0000      -0.351061        -9.5528
  93   1.0000      -0.349061        -9.4984
  94   1.0000      -0.346874        -9.4389
  95   1.0000      -0.345354        -9.3976
  96   1.0000      -0.343716        -9.3530
  97   1.0000      -0.343419        -9.3449
  98   1.0000      -0.343112        -9.3365
  99   1.0000      -0.335451        -9.1281
 100   1.0000      -0.331626        -9.0240
 101   1.0000      -0.329586        -8.9685
 102   1.0000      -0.324676        -8.8349
 103   1.0000      -0.312224        -8.4961
 104   1.0000      -0.311226        -8.4689
 105   1.0000      -0.288688        -7.8556
 106   1.0000      -0.236920        -6.4469
 107   1.0000      -0.231236        -6.2923
 108   0.0000      -0.126603        -3.4450
 109   0.0000      -0.092136        -2.5071
 110   0.0000      -0.078837        -2.1453
 111   0.0000      -0.055321        -1.5054
 112   0.0000      -0.051951        -1.4137

                 SPIN DOWN ORBITALS
  NO   OCC          E(Eh)            E(eV)
   0   1.0000    -217.770500     -5925.8366
   1   1.0000     -25.392426      -690.9630
   2   1.0000     -21.546841      -586.3194
   3   1.0000     -21.537412      -586.0628
   4   1.0000     -21.520403      -585.5999
   5   1.0000      -4.401207      -119.7629
   6   1.0000      -4.398161      -119.6800
   7   1.0000      -4.395580      -119.6098
   8   1.0000      -4.395409      -119.6052
   9   1.0000      -4.394703      -119.5860
  10   1.0000      -4.394196      -119.5722
  11   1.0000      -4.390785      -119.4793
  12   1.0000      -4.390581      -119.4738
  13   1.0000      -4.389030      -119.4316
  14   1.0000      -4.388859      -119.4269
  15   1.0000      -3.037214       -82.6468
  16   1.0000      -2.522615       -68.6438
  17   1.0000      -2.521645       -68.6174
  18   1.0000      -2.517753       -68.5115
  19   1.0000      -2.516031       -68.4647
  20   1.0000      -2.515724       -68.4563
  21   1.0000      -2.515410       -68.4478
  22   1.0000      -2.515180       -68.4415
  23   1.0000      -2.514947       -68.4352
  24   1.0000      -2.513997       -68.4093
  25   1.0000      -2.513733       -68.4022
  26   1.0000      -2.512203       -68.3605
  27   1.0000      -2.512091       -68.3575
  28   1.0000      -2.511423       -68.3393
  29   1.0000      -2.510786       -68.3220
  30   1.0000      -2.510428       -68.3122
  31   1.0000      -2.509065       -68.2751
  32   1.0000      -2.508882       -68.2701
  33   1.0000      -2.508389       -68.2567
  34   1.0000      -2.508038       -68.2472
  35   1.0000      -2.507826       -68.2414
  36   1.0000      -2.507678       -68.2374
  37   1.0000      -2.507540       -68.2336
  38   1.0000      -2.507016       -68.2194
  39   1.0000      -2.506839       -68.2145
  40   1.0000      -2.506667       -68.2099
  41   1.0000      -2.505927       -68.1897
  42   1.0000      -2.503942       -68.1357
  43   1.0000      -2.503394       -68.1208
  44   1.0000      -2.501553       -68.0707
  45   1.0000      -2.500351       -68.0380
  46   1.0000      -1.917906       -52.1889
  47   1.0000      -1.895456       -51.5780
  48   1.0000      -1.854885       -50.4740
  49   1.0000      -0.483934       -13.1685
  50   1.0000      -0.467480       -12.7208
  51   1.0000      -0.458757       -12.4834
  52   1.0000      -0.457245       -12.4423
  53   1.0000      -0.454270       -12.3613
  54   1.0000      -0.452564       -12.3149
  55   1.0000      -0.451019       -12.2728
  56   1.0000      -0.445671       -12.1273
  57   1.0000      -0.443156       -12.0589
  58   1.0000      -0.441951       -12.0261
  59   1.0000      -0.437480       -11.9044
  60   1.0000      -0.431503       -11.7418
  61   1.0000      -0.430544       -11.7157
  62   1.0000      -0.425899       -11.5893
  63   1.0000      -0.424884       -11.5617
  64   1.0000      -0.422608       -11.4998
  65   1.0000      -0.421832       -11.4786
  66   1.0000      -0.417162       -11.3515
  67   1.0000      -0.414983       -11.2923
  68   1.0000      -0.407070       -11.0769
  69   1.0000      -0.404908       -11.0181
  70   1.0000      -0.404328       -11.0023
  71   1.0000      -0.402093       -10.9415
  72   1.0000      -0.398191       -10.8353
  73   1.0000      -0.397372       -10.8131
  74   1.0000      -0.389701       -10.6043
  75   1.0000      -0.388079       -10.5602
  76   1.0000      -0.387394       -10.5415
  77   1.0000      -0.382409       -10.4059
  78   1.0000      -0.380632       -10.3575
  79   1.0000      -0.377563       -10.2740
  80   1.0000      -0.375444       -10.2163
  81   1.0000      -0.371563       -10.1107
  82   1.0000      -0.369082       -10.0432
  83   1.0000      -0.368134       -10.0174
  84   1.0000      -0.366453        -9.9717
  85   1.0000      -0.363523        -9.8920
  86   1.0000      -0.362147        -9.8545
  87   1.0000      -0.361991        -9.8503
  88   1.0000      -0.358768        -9.7626
  89   1.0000      -0.356815        -9.7094
  90   1.0000      -0.355052        -9.6615
  91   1.0000      -0.352370        -9.5885
  92   1.0000      -0.349374        -9.5069
  93   1.0000      -0.348566        -9.4850
  94   1.0000      -0.345969        -9.4143
  95   1.0000      -0.344676        -9.3791
  96   1.0000      -0.338611        -9.2141
  97   1.0000      -0.338057        -9.1990
  98   1.0000      -0.334585        -9.1045
  99   1.0000      -0.323412        -8.8005
 100   1.0000      -0.317907        -8.6507
 101   1.0000      -0.306777        -8.3478
 102   1.0000      -0.257905        -7.0179
 103   1.0000      -0.233052        -6.3417
 104   1.0000      -0.227022        -6.1776
 105   1.0000      -0.197852        -5.3838
 106   0.0000      -0.085420        -2.3244
 107   0.0000      -0.072478        -1.9722
 108   0.0000      -0.058856        -1.6016
 109   0.0000      -0.043572        -1.1856
 110   0.0000      -0.020644        -0.5618

MULLIKEN ATOMIC CHARGES AND SPIN POPULATIONS
--------------------------------------------
   0 Au:    0.211915   -0.242277
   1 Au:    0.013381   -0.109329
   2 Au:    0.299991   -0.053225
   3 Au:    0.245290   -0.337318
   4 Au:    0.228303   -0.022573
   5 Au:    0.338025   -0.191904
   6 Au:    0.212020   -0.239796
   7 Au:    0.244459   -0.024716
   8 Au:    0.303650   -0.086657
   9 Au:    0.249020   -0.339474
  10 Cr:   -2.346054    3.647269
Sum of atomic charges         :   -0.0000000

LOEWDIN ATOMIC CHARGES AND SPIN POPULATIONS
-------------------------------------------
   0 Au:    0.056334   -0.142375
   1 Au:    0.077845   -0.131632
   2 Au:    0.125141   -0.152297
   3 Au:    0.043097   -0.210647
   4 Au:    0.041744   -0.072301
   5 Au:    0.101615   -0.162293
   6 Au:    0.057367   -0.142797
   7 Au:    0.042661   -0.072871
   8 Au:    0.100955   -0.131718
   9 Au:    0.045189   -0.212161
  10 Cr:   -0.691947    3.431093

  Mayer bond orders larger than 0.100000
B(  0-Au,  4-Au) :   0.4413 B(  0-Au,  5-Au) :   0.1771 B(  0-Au, 10-Cr) :   0.5720
B(  1-Au,  2-Au) :   0.3721 B(  1-Au,  5-Au) :   0.3336 B(  1-Au, 10-Cr) :   0.6004
B(  2-Au,  3-Au) :   0.1756 B(  2-Au,  9-Au) :   0.1772 B(  2-Au, 10-Cr) :   0.5559
B(  3-Au,  4-Au) :   0.2361 B(  3-Au,  8-Au) :   0.1790 B(  3-Au, 10-Cr) :   0.4668
B(  4-Au,  8-Au) :   0.2002 B(  4-Au, 10-Cr) :   0.5439 B(  5-Au,  6-Au) :   0.1793
B(  5-Au, 10-Cr) :   0.3556 B(  6-Au,  7-Au) :   0.4382 B(  6-Au, 10-Cr) :   0.5725
B(  7-Au,  8-Au) :   0.2000 B(  7-Au,  9-Au) :   0.2288 B(  7-Au, 10-Cr) :   0.5578
B(  8-Au,  9-Au) :   0.1703 B(  8-Au, 10-Cr) :   0.4512 B(  9-Au, 10-Cr) :   0.4785

MP2 TOTAL ENERGY:    -2400.082337321 Eh
FINAL SINGLE POINT ENERGY     -2400.082337320798

DIPOLE MOMENT
-------------
                                X             Y             Z
Electronic contribution:     -0.88166      -0.04522      14.23465
Nuclear contribution   :      0.97020      -0.08621     -14.32350
                        -----------------------------------------
Total Dipole Moment    :      0.08854      -0.13144      -0.08885
                        -----------------------------------------
Magnitude (a.u.)       :      0.18169
Magnitude (Debye)      :      0.46181

Rotational constants in cm-1:     0.002268     0.001506     0.001228
Rotational constants in MHz :    67.984950    45.156662    36.814876

                             ****ORCA TERMINATED NORMALLY****
TOTAL RUN TIME: 0 days 0 hours 36 minutes 22 seconds 359 msec
