                         Program Version 5.0.3 -  RELEASE  -
|  1> !PBE def2-TZVP VERYSLOWCONV
|  2>
|  3> %scf
|  4>   AutoTRAHIter 200
|  5>   maxiter 400
|  6> end
|  7>
|  8>
|  9> %pal nprocs 6 end
| 10>
| 11> *xyzfile 0 5 pbe.xyz
| 12>
| 13> $new_job
| 14>
| 15> !PBE def2-TZVP VERYSLOWCONV
| 16>
| 17> %scf
| 18>   AutoTRAHIter 200
| 19>   maxiter 400
| 20> end
| 21>
| 22>
| 23> %pal nprocs 6 end
| 24>
| 25> *xyzfile 0 3 pbe.xyz
| 26>
| 27>
| 28>
| 29>
| 30>
| 31>                          ****END OF INPUT****
 Total Charge           Charge          ....    0
 Multiplicity           Mult            ....    5
 Number of Electrons    NEL             ....  214
FINAL SINGLE POINT ENERGY     -2402.483391448332

CARTESIAN COORDINATES (ANGSTROEM)
---------------------------------
  Au     8.617435    9.195463    9.366982
  Au     8.791198    6.654736    6.597243
  Au     9.870614    4.599887    7.922189
  Au    10.674992    5.462947   10.447213
  Au     9.302329    7.739370   11.503343
  Au     7.349214    8.924376    6.935830
  Au     6.143952    7.727296    9.110550
  Au     6.766620    6.212577   11.225358
  Au     8.936677    5.227401   12.677518
  Au     8.315775    4.031615   10.172234
  Cr     8.504639    6.575100    9.186037

 Multiplicity           Mult            ....    3
 Number of Electrons    NEL             ....  214
 Basis Dimension        Dim             ....  445

ORBITAL ENERGIES
----------------
                 SPIN UP ORBITALS
  NO   OCC          E(Eh)            E(eV)
   0   1.0000    -214.505967     -5837.0041
   1   1.0000     -24.308711      -661.4737
   2   1.0000     -20.676175      -562.6273
   3   1.0000     -20.673303      -562.5492
   4   1.0000     -20.667157      -562.3819
   5   1.0000      -4.023709      -109.4907
   6   1.0000      -4.022017      -109.4446
   7   1.0000      -4.021886      -109.4411
   8   1.0000      -4.021789      -109.4384
   9   1.0000      -4.021384      -109.4274
  10   1.0000      -4.021012      -109.4173
  11   1.0000      -4.017975      -109.3347
  12   1.0000      -4.017808      -109.3301
  13   1.0000      -4.017400      -109.3190
  14   1.0000      -4.016246      -109.2876
  15   1.0000      -2.806977       -76.3817
  16   1.0000      -2.242253       -61.0148
  17   1.0000      -2.240828       -60.9760
  18   1.0000      -2.239520       -60.9404
  19   1.0000      -2.239105       -60.9291
  20   1.0000      -2.238731       -60.9190
  21   1.0000      -2.238060       -60.9007
  22   1.0000      -2.237637       -60.8892
  23   1.0000      -2.236752       -60.8651
  24   1.0000      -2.236220       -60.8506
  25   1.0000      -2.235600       -60.8338
  26   1.0000      -2.235135       -60.8211
  27   1.0000      -2.234666       -60.8083
  28   1.0000      -2.234617       -60.8070
  29   1.0000      -2.234102       -60.7930
  30   1.0000      -2.233814       -60.7852
  31   1.0000      -2.232416       -60.7471
  32   1.0000      -2.231914       -60.7335
  33   1.0000      -2.231776       -60.7297
  34   1.0000      -2.231326       -60.7175
  35   1.0000      -2.230176       -60.6862
  36   1.0000      -2.229631       -60.6714
  37   1.0000      -2.229442       -60.6662
  38   1.0000      -2.229367       -60.6642
  39   1.0000      -2.229289       -60.6620
  40   1.0000      -2.229166       -60.6587
  41   1.0000      -2.228325       -60.6358
  42   1.0000      -2.226671       -60.5908
  43   1.0000      -2.226053       -60.5740
  44   1.0000      -2.224616       -60.5349
  45   1.0000      -2.223482       -60.5040
  46   1.0000      -1.801881       -49.0317
  47   1.0000      -1.797451       -48.9111
  48   1.0000      -1.788968       -48.6803
  49   1.0000      -0.406443       -11.0599
  50   1.0000      -0.372317       -10.1312
  51   1.0000      -0.367469        -9.9993
  52   1.0000      -0.359950        -9.7947
  53   1.0000      -0.355193        -9.6653
  54   1.0000      -0.353849        -9.6287
  55   1.0000      -0.351929        -9.5765
  56   1.0000      -0.341095        -9.2817
  57   1.0000      -0.340379        -9.2622
  58   1.0000      -0.336861        -9.1665
  59   1.0000      -0.332538        -9.0488
  60   1.0000      -0.331531        -9.0214
  61   1.0000      -0.329440        -8.9645
  62   1.0000      -0.324988        -8.8434
  63   1.0000      -0.323136        -8.7930
  64   1.0000      -0.319947        -8.7062
  65   1.0000      -0.319688        -8.6992
  66   1.0000      -0.318671        -8.6715
  67   1.0000      -0.314146        -8.5483
  68   1.0000      -0.309582        -8.4242
  69   1.0000      -0.306928        -8.3519
  70   1.0000      -0.304281        -8.2799
  71   1.0000      -0.303010        -8.2453
  72   1.0000      -0.298361        -8.1188
  73   1.0000      -0.294894        -8.0245
  74   1.0000      -0.292293        -7.9537
  75   1.0000      -0.287948        -7.8355
  76   1.0000      -0.286075        -7.7845
  77   1.0000      -0.283609        -7.7174
  78   1.0000      -0.281346        -7.6558
  79   1.0000      -0.279248        -7.5987
  80   1.0000      -0.277165        -7.5420
  81   1.0000      -0.274871        -7.4796
  82   1.0000      -0.272536        -7.4161
  83   1.0000      -0.271011        -7.3746
  84   1.0000      -0.269582        -7.3357
  85   1.0000      -0.267489        -7.2787
  86   1.0000      -0.264289        -7.1917
  87   1.0000      -0.263303        -7.1648
  88   1.0000      -0.259096        -7.0504
  89   1.0000      -0.258853        -7.0438
  90   1.0000      -0.258106        -7.0234
  91   1.0000      -0.255561        -6.9542
  92   1.0000      -0.255149        -6.9430
  93   1.0000      -0.251118        -6.8333
  94   1.0000      -0.250026        -6.8036
  95   1.0000      -0.248959        -6.7745
  96   1.0000      -0.245533        -6.6813
  97   1.0000      -0.243589        -6.6284
  98   1.0000      -0.243119        -6.6156
  99   1.0000      -0.240911        -6.5555
 100   1.0000      -0.237902        -6.4736
 101   1.0000      -0.231273        -6.2933
 102   1.0000      -0.220501        -6.0001
 103   1.0000      -0.219434        -5.9711
 104   1.0000      -0.210938        -5.7399
 105   1.0000      -0.209161        -5.6916
 106   1.0000      -0.203345        -5.5333
 107   1.0000      -0.198033        -5.3887
 108   0.0000      -0.194780        -5.3002
 109   0.0000      -0.172482        -4.6935
 110   0.0000      -0.154156        -4.1948
 111   0.0000      -0.138946        -3.7809
 112   0.0000      -0.124630        -3.3914

                 SPIN DOWN ORBITALS
  NO   OCC          E(Eh)            E(eV)
   0   1.0000    -214.505536     -5836.9924
   1   1.0000     -24.264978      -660.2836
   2   1.0000     -20.646042      -561.8074
   3   1.0000     -20.641224      -561.6763
   4   1.0000     -20.629082      -561.3459
   5   1.0000      -4.023750      -109.4918
   6   1.0000      -4.022465      -109.4568
   7   1.0000      -4.022173      -109.4489
   8   1.0000      -4.021758      -109.4376
   9   1.0000      -4.021121      -109.4203
  10   1.0000      -4.020715      -109.4092
  11   1.0000      -4.018146      -109.3393
  12   1.0000      -4.017567      -109.3235
  13   1.0000      -4.017356      -109.3178
  14   1.0000      -4.016957      -109.3069
  15   1.0000      -2.689335       -73.1805
  16   1.0000      -2.242131       -61.0115
  17   1.0000      -2.240793       -60.9751
  18   1.0000      -2.239201       -60.9318
  19   1.0000      -2.238735       -60.9191
  20   1.0000      -2.238651       -60.9168
  21   1.0000      -2.238217       -60.9050
  22   1.0000      -2.237681       -60.8904
  23   1.0000      -2.236792       -60.8662
  24   1.0000      -2.236290       -60.8525
  25   1.0000      -2.235696       -60.8364
  26   1.0000      -2.235026       -60.8182
  27   1.0000      -2.234314       -60.7988
  28   1.0000      -2.234135       -60.7939
  29   1.0000      -2.234022       -60.7908
  30   1.0000      -2.233545       -60.7778
  31   1.0000      -2.232993       -60.7628
  32   1.0000      -2.231929       -60.7339
  33   1.0000      -2.231891       -60.7329
  34   1.0000      -2.231731       -60.7285
  35   1.0000      -2.230840       -60.7042
  36   1.0000      -2.230244       -60.6880
  37   1.0000      -2.230197       -60.6867
  38   1.0000      -2.230124       -60.6848
  39   1.0000      -2.229744       -60.6744
  40   1.0000      -2.229165       -60.6587
  41   1.0000      -2.228274       -60.6344
  42   1.0000      -2.227391       -60.6104
  43   1.0000      -2.225687       -60.5640
  44   1.0000      -2.224274       -60.5256
  45   1.0000      -2.223153       -60.4951
  46   1.0000      -1.696628       -46.1676
  47   1.0000      -1.685796       -45.8728
  48   1.0000      -1.657959       -45.1154
  49   1.0000      -0.402313       -10.9475
  50   1.0000      -0.370559       -10.0834
  51   1.0000      -0.367483        -9.9997
  52   1.0000      -0.356240        -9.6938
  53   1.0000      -0.355684        -9.6787
  54   1.0000      -0.354624        -9.6498
  55   1.0000      -0.351302        -9.5594
  56   1.0000      -0.340544        -9.2667
  57   1.0000      -0.340359        -9.2616
  58   1.0000      -0.338099        -9.2002
  59   1.0000      -0.332355        -9.0438
  60   1.0000      -0.328226        -8.9315
  61   1.0000      -0.326164        -8.8754
  62   1.0000      -0.325455        -8.8561
  63   1.0000      -0.323540        -8.8040
  64   1.0000      -0.319110        -8.6834
  65   1.0000      -0.317585        -8.6419
  66   1.0000      -0.316901        -8.6233
  67   1.0000      -0.314218        -8.5503
  68   1.0000      -0.306654        -8.3445
  69   1.0000      -0.304818        -8.2945
  70   1.0000      -0.303744        -8.2653
  71   1.0000      -0.302884        -8.2419
  72   1.0000      -0.298132        -8.1126
  73   1.0000      -0.294852        -8.0233
  74   1.0000      -0.291360        -7.9283
  75   1.0000      -0.287835        -7.8324
  76   1.0000      -0.286108        -7.7854
  77   1.0000      -0.283618        -7.7176
  78   1.0000      -0.282780        -7.6948
  79   1.0000      -0.279730        -7.6118
  80   1.0000      -0.277563        -7.5529
  81   1.0000      -0.275257        -7.4901
  82   1.0000      -0.273268        -7.4360
  83   1.0000      -0.271165        -7.3788
  84   1.0000      -0.270340        -7.3563
  85   1.0000      -0.268804        -7.3145
  86   1.0000      -0.265731        -7.2309
  87   1.0000      -0.264165        -7.1883
  88   1.0000      -0.260025        -7.0757
  89   1.0000      -0.259841        -7.0706
  90   1.0000      -0.259332        -7.0568
  91   1.0000      -0.256818        -6.9884
  92   1.0000      -0.255119        -6.9421
  93   1.0000      -0.252122        -6.8606
  94   1.0000      -0.251602        -6.8465
  95   1.0000      -0.249686        -6.7943
  96   1.0000      -0.246729        -6.7138
  97   1.0000      -0.245010        -6.6671
  98   1.0000      -0.244421        -6.6510
  99   1.0000      -0.242607        -6.6017
 100   1.0000      -0.239700        -6.5226
 101   1.0000      -0.231441        -6.2978
 102   1.0000      -0.216501        -5.8913
 103   1.0000      -0.213855        -5.8193
 104   1.0000      -0.200993        -5.4693
 105   1.0000      -0.179509        -4.8847
 106   0.0000      -0.149728        -4.0743
 107   0.0000      -0.136336        -3.7099
 108   0.0000      -0.125694        -3.4203
 109   0.0000      -0.123088        -3.3494
 110   0.0000      -0.118825        -3.2334

MULLIKEN ATOMIC CHARGES AND SPIN POPULATIONS
--------------------------------------------
   0 Au:    0.251903   -0.122368
   1 Au:    0.051286   -0.121894
   2 Au:    0.326833   -0.051097
   3 Au:    0.249286   -0.184095
   4 Au:    0.242496   -0.038883
   5 Au:    0.366532   -0.182693
   6 Au:    0.252272   -0.119079
   7 Au:    0.259319   -0.042106
   8 Au:    0.335960   -0.166937
   9 Au:    0.254009   -0.181934
  10 Cr:   -2.589897    3.211085
Sum of atomic charges         :   -0.0000000

LOEWDIN ATOMIC CHARGES AND SPIN POPULATIONS
-------------------------------------------
   0 Au:    0.089265   -0.083457
   1 Au:    0.113477   -0.089316
   2 Au:    0.122770   -0.078329
   3 Au:    0.074205   -0.138371
   4 Au:    0.068389   -0.053787
   5 Au:    0.096625   -0.163289
   6 Au:    0.090226   -0.082298
   7 Au:    0.069602   -0.054359
   8 Au:    0.088344   -0.157668
   9 Au:    0.077983   -0.139340
  10 Cr:   -0.890887    3.040214

  Mayer bond orders larger than 0.100000
B(  0-Au,  4-Au) :   0.4076 B(  0-Au,  5-Au) :   0.2412 B(  0-Au, 10-Cr) :   0.7311
B(  1-Au,  2-Au) :   0.4009 B(  1-Au,  5-Au) :   0.3140 B(  1-Au, 10-Cr) :   0.6526
B(  2-Au,  3-Au) :   0.2071 B(  2-Au,  9-Au) :   0.2060 B(  2-Au, 10-Cr) :   0.5998
B(  3-Au,  4-Au) :   0.2539 B(  3-Au,  8-Au) :   0.2263 B(  3-Au,  9-Au) :   0.1213
B(  3-Au, 10-Cr) :   0.6357 B(  4-Au,  8-Au) :   0.2330 B(  4-Au, 10-Cr) :   0.6272
B(  5-Au,  6-Au) :   0.2402 B(  5-Au, 10-Cr) :   0.3768 B(  6-Au,  7-Au) :   0.4054
B(  6-Au, 10-Cr) :   0.7309 B(  7-Au,  8-Au) :   0.2352 B(  7-Au,  9-Au) :   0.2437
B(  7-Au, 10-Cr) :   0.6402 B(  8-Au,  9-Au) :   0.2211 B(  8-Au, 10-Cr) :   0.3811
B(  9-Au, 10-Cr) :   0.6568

FINAL SINGLE POINT ENERGY     -2402.468540216017

DIPOLE MOMENT
-------------
                                X             Y             Z
Electronic contribution:     -0.92941       0.02593      14.29420
Nuclear contribution   :      0.97020      -0.08621     -14.32350
                        -----------------------------------------
Total Dipole Moment    :      0.04079      -0.06028      -0.02931
                        -----------------------------------------
Magnitude (a.u.)       :      0.07847
Magnitude (Debye)      :      0.19945

Rotational constants in cm-1:     0.002268     0.001506     0.001228
Rotational constants in MHz :    67.984950    45.156662    36.814876

                             ****ORCA TERMINATED NORMALLY****
TOTAL RUN TIME: 0 days 0 hours 15 minutes 21 seconds 734 msec
