                         Program Version 5.0.3 -  RELEASE  -
|  1> !R2SCAN def2-TZVP VERYSLOWCONV
|  2> !KDIIS
|  3> %scf
|  4>   AutoTRAHIter 200
|  5>   maxiter 400
|  6> end
|  7>
|  8> %pal nprocs 6 end
|  9>
| 10> *xyzfile 0 5 pbe.xyz
| 11>
| 12> $new_job
| 13>
| 14> !R2SCAN def2-TZVP VERYSLOWCONV
| 15> !KDIIS
| 16> %scf
| 17>   AutoTRAHIter 200
| 18>   maxiter 400
| 19> end
| 20>
| 21>
| 22> %pal nprocs 6 end
| 23>
| 24> *xyzfile 0 3 pbe.xyz
| 25>
| 26>
| 27>
| 28>
| 29>
| 30>                          ****END OF INPUT****
 Total Charge           Charge          ....    0
 Multiplicity           Mult            ....    5
 Number of Electrons    NEL             ....  214
FINAL SINGLE POINT ENERGY     -2402.874934984468

CARTESIAN COORDINATES (ANGSTROEM)
---------------------------------
  Au     8.617435    9.195463    9.366982
  Au     8.791198    6.654736    6.597243
  Au     9.870614    4.599887    7.922189
  Au    10.674992    5.462947   10.447213
  Au     9.302329    7.739370   11.503343
  Au     7.349214    8.924376    6.935830
  Au     6.143952    7.727296    9.110550
  Au     6.766620    6.212577   11.225358
  Au     8.936677    5.227401   12.677518
  Au     8.315775    4.031615   10.172234
  Cr     8.504639    6.575100    9.186037

 Multiplicity           Mult            ....    3
 Number of Electrons    NEL             ....  214
 Basis Dimension        Dim             ....  445

ORBITAL ENERGIES
----------------
                 SPIN UP ORBITALS
  NO   OCC          E(Eh)            E(eV)
   0   1.0000    -215.297867     -5858.5528
   1   1.0000     -24.600722      -669.4197
   2   1.0000     -20.869961      -567.9005
   3   1.0000     -20.867316      -567.8285
   4   1.0000     -20.863547      -567.7260
   5   1.0000      -4.114241      -111.9542
   6   1.0000      -4.112728      -111.9130
   7   1.0000      -4.111883      -111.8900
   8   1.0000      -4.111517      -111.8801
   9   1.0000      -4.111136      -111.8697
  10   1.0000      -4.110963      -111.8650
  11   1.0000      -4.108326      -111.7932
  12   1.0000      -4.108147      -111.7884
  13   1.0000      -4.107954      -111.7831
  14   1.0000      -4.107848      -111.7802
  15   1.0000      -2.918443       -79.4149
  16   1.0000      -2.305471       -62.7351
  17   1.0000      -2.303895       -62.6922
  18   1.0000      -2.302738       -62.6607
  19   1.0000      -2.302300       -62.6488
  20   1.0000      -2.301844       -62.6364
  21   1.0000      -2.300578       -62.6019
  22   1.0000      -2.299879       -62.5829
  23   1.0000      -2.299587       -62.5749
  24   1.0000      -2.299166       -62.5635
  25   1.0000      -2.298804       -62.5536
  26   1.0000      -2.297911       -62.5293
  27   1.0000      -2.297609       -62.5211
  28   1.0000      -2.297216       -62.5104
  29   1.0000      -2.297136       -62.5083
  30   1.0000      -2.296769       -62.4983
  31   1.0000      -2.295453       -62.4625
  32   1.0000      -2.295259       -62.4572
  33   1.0000      -2.294870       -62.4466
  34   1.0000      -2.294736       -62.4429
  35   1.0000      -2.294043       -62.4241
  36   1.0000      -2.293632       -62.4129
  37   1.0000      -2.293049       -62.3970
  38   1.0000      -2.292847       -62.3915
  39   1.0000      -2.292666       -62.3866
  40   1.0000      -2.292042       -62.3696
  41   1.0000      -2.291618       -62.3581
  42   1.0000      -2.291188       -62.3464
  43   1.0000      -2.290198       -62.3195
  44   1.0000      -2.287942       -62.2581
  45   1.0000      -2.286736       -62.2252
  46   1.0000      -1.867657       -50.8215
  47   1.0000      -1.865258       -50.7562
  48   1.0000      -1.861085       -50.6427
  49   1.0000      -0.410461       -11.1692
  50   1.0000      -0.378112       -10.2889
  51   1.0000      -0.373559       -10.1651
  52   1.0000      -0.368141       -10.0176
  53   1.0000      -0.362829        -9.8731
  54   1.0000      -0.361478        -9.8363
  55   1.0000      -0.359817        -9.7911
  56   1.0000      -0.349523        -9.5110
  57   1.0000      -0.349092        -9.4993
  58   1.0000      -0.345020        -9.3885
  59   1.0000      -0.341159        -9.2834
  60   1.0000      -0.340295        -9.2599
  61   1.0000      -0.337913        -9.1951
  62   1.0000      -0.332796        -9.0559
  63   1.0000      -0.331547        -9.0218
  64   1.0000      -0.328323        -8.9341
  65   1.0000      -0.327533        -8.9126
  66   1.0000      -0.326466        -8.8836
  67   1.0000      -0.323351        -8.7988
  68   1.0000      -0.317238        -8.6325
  69   1.0000      -0.315456        -8.5840
  70   1.0000      -0.313138        -8.5209
  71   1.0000      -0.310883        -8.4595
  72   1.0000      -0.306509        -8.3405
  73   1.0000      -0.303371        -8.2551
  74   1.0000      -0.301176        -8.1954
  75   1.0000      -0.295787        -8.0488
  76   1.0000      -0.294041        -8.0012
  77   1.0000      -0.291691        -7.9373
  78   1.0000      -0.288766        -7.8577
  79   1.0000      -0.287431        -7.8214
  80   1.0000      -0.285155        -7.7595
  81   1.0000      -0.283057        -7.7024
  82   1.0000      -0.280444        -7.6313
  83   1.0000      -0.278904        -7.5894
  84   1.0000      -0.276774        -7.5314
  85   1.0000      -0.275616        -7.4999
  86   1.0000      -0.271513        -7.3882
  87   1.0000      -0.271148        -7.3783
  88   1.0000      -0.266757        -7.2588
  89   1.0000      -0.266222        -7.2443
  90   1.0000      -0.265709        -7.2303
  91   1.0000      -0.262973        -7.1558
  92   1.0000      -0.262656        -7.1472
  93   1.0000      -0.258296        -7.0286
  94   1.0000      -0.257090        -6.9958
  95   1.0000      -0.256421        -6.9776
  96   1.0000      -0.252586        -6.8732
  97   1.0000      -0.250159        -6.8072
  98   1.0000      -0.249308        -6.7840
  99   1.0000      -0.244877        -6.6634
 100   1.0000      -0.244197        -6.6449
 101   1.0000      -0.238078        -6.4784
 102   1.0000      -0.226196        -6.1551
 103   1.0000      -0.225282        -6.1302
 104   1.0000      -0.217654        -5.9227
 105   1.0000      -0.213051        -5.7974
 106   1.0000      -0.209789        -5.7087
 107   1.0000      -0.201293        -5.4775
 108   0.0000      -0.193608        -5.2683
 109   0.0000      -0.169453        -4.6110
 110   0.0000      -0.149981        -4.0812
 111   0.0000      -0.133231        -3.6254
 112   0.0000      -0.119288        -3.2460

                 SPIN DOWN ORBITALS
  NO   OCC          E(Eh)            E(eV)
   0   1.0000    -215.297245     -5858.5359
   1   1.0000     -24.540248      -667.7741
   2   1.0000     -20.827208      -566.7371
   3   1.0000     -20.822004      -566.5955
   4   1.0000     -20.811859      -566.3195
   5   1.0000      -4.114479      -111.9607
   6   1.0000      -4.113117      -111.9236
   7   1.0000      -4.111889      -111.8902
   8   1.0000      -4.111778      -111.8872
   9   1.0000      -4.111659      -111.8839
  10   1.0000      -4.111379      -111.8763
  11   1.0000      -4.109369      -111.8216
  12   1.0000      -4.109163      -111.8160
  13   1.0000      -4.107741      -111.7773
  14   1.0000      -4.107550      -111.7721
  15   1.0000      -2.759596       -75.0924
  16   1.0000      -2.305802       -62.7441
  17   1.0000      -2.304055       -62.6965
  18   1.0000      -2.302501       -62.6542
  19   1.0000      -2.302341       -62.6499
  20   1.0000      -2.301935       -62.6388
  21   1.0000      -2.300713       -62.6056
  22   1.0000      -2.300087       -62.5886
  23   1.0000      -2.299681       -62.5775
  24   1.0000      -2.299167       -62.5635
  25   1.0000      -2.299014       -62.5594
  26   1.0000      -2.298144       -62.5357
  27   1.0000      -2.297717       -62.5240
  28   1.0000      -2.297087       -62.5069
  29   1.0000      -2.296994       -62.5044
  30   1.0000      -2.296149       -62.4814
  31   1.0000      -2.296073       -62.4793
  32   1.0000      -2.295389       -62.4607
  33   1.0000      -2.295350       -62.4597
  34   1.0000      -2.295058       -62.4517
  35   1.0000      -2.294854       -62.4461
  36   1.0000      -2.294290       -62.4308
  37   1.0000      -2.293870       -62.4194
  38   1.0000      -2.293190       -62.4009
  39   1.0000      -2.292809       -62.3905
  40   1.0000      -2.292747       -62.3888
  41   1.0000      -2.291906       -62.3659
  42   1.0000      -2.291732       -62.3612
  43   1.0000      -2.289961       -62.3130
  44   1.0000      -2.287549       -62.2474
  45   1.0000      -2.286381       -62.2156
  46   1.0000      -1.721698       -46.8498
  47   1.0000      -1.710101       -46.5342
  48   1.0000      -1.686576       -45.8941
  49   1.0000      -0.406727       -11.0676
  50   1.0000      -0.376532       -10.2460
  51   1.0000      -0.374510       -10.1909
  52   1.0000      -0.364645        -9.9225
  53   1.0000      -0.364233        -9.9113
  54   1.0000      -0.363018        -9.8782
  55   1.0000      -0.359801        -9.7907
  56   1.0000      -0.349759        -9.5174
  57   1.0000      -0.349063        -9.4985
  58   1.0000      -0.347179        -9.4472
  59   1.0000      -0.341492        -9.2925
  60   1.0000      -0.336829        -9.1656
  61   1.0000      -0.334585        -9.1045
  62   1.0000      -0.333776        -9.0825
  63   1.0000      -0.332626        -9.0512
  64   1.0000      -0.327829        -8.9207
  65   1.0000      -0.326338        -8.8801
  66   1.0000      -0.325783        -8.8650
  67   1.0000      -0.323799        -8.8110
  68   1.0000      -0.314494        -8.5578
  69   1.0000      -0.313880        -8.5411
  70   1.0000      -0.312406        -8.5010
  71   1.0000      -0.311648        -8.4804
  72   1.0000      -0.306797        -8.3484
  73   1.0000      -0.303776        -8.2662
  74   1.0000      -0.299362        -8.1460
  75   1.0000      -0.296289        -8.0624
  76   1.0000      -0.294646        -8.0177
  77   1.0000      -0.291977        -7.9451
  78   1.0000      -0.291095        -7.9211
  79   1.0000      -0.288524        -7.8511
  80   1.0000      -0.286185        -7.7875
  81   1.0000      -0.284060        -7.7297
  82   1.0000      -0.282219        -7.6796
  83   1.0000      -0.278909        -7.5895
  84   1.0000      -0.278465        -7.5774
  85   1.0000      -0.277504        -7.5513
  86   1.0000      -0.273528        -7.4431
  87   1.0000      -0.272682        -7.4201
  88   1.0000      -0.268153        -7.2968
  89   1.0000      -0.267941        -7.2911
  90   1.0000      -0.267572        -7.2810
  91   1.0000      -0.264500        -7.1974
  92   1.0000      -0.263175        -7.1613
  93   1.0000      -0.260070        -7.0769
  94   1.0000      -0.259555        -7.0629
  95   1.0000      -0.257275        -7.0008
  96   1.0000      -0.254292        -6.9196
  97   1.0000      -0.252072        -6.8592
  98   1.0000      -0.251743        -6.8503
  99   1.0000      -0.248671        -6.7667
 100   1.0000      -0.246948        -6.7198
 101   1.0000      -0.238144        -6.4802
 102   1.0000      -0.220698        -6.0055
 103   1.0000      -0.216064        -5.8794
 104   1.0000      -0.202604        -5.5131
 105   1.0000      -0.180039        -4.8991
 106   0.0000      -0.144595        -3.9346
 107   0.0000      -0.131668        -3.5829
 108   0.0000      -0.120213        -3.2712
 109   0.0000      -0.100987        -2.7480
 110   0.0000      -0.096151        -2.6164

MULLIKEN ATOMIC CHARGES AND SPIN POPULATIONS
--------------------------------------------
   0 Au:    0.221184   -0.162180
   1 Au:    0.049784   -0.159059
   2 Au:    0.303481   -0.064086
   3 Au:    0.220945   -0.245307
   4 Au:    0.217854   -0.044637
   5 Au:    0.335905   -0.246869
   6 Au:    0.221627   -0.159187
   7 Au:    0.232699   -0.047640
   8 Au:    0.311088   -0.193980
   9 Au:    0.224255   -0.245229
  10 Cr:   -2.338821    3.568175
Sum of atomic charges         :   -0.0000000

LOEWDIN ATOMIC CHARGES AND SPIN POPULATIONS
-------------------------------------------
   0 Au:    0.082333   -0.109055
   1 Au:    0.107403   -0.121665
   2 Au:    0.120959   -0.101234
   3 Au:    0.065586   -0.168582
   4 Au:    0.063356   -0.070185
   5 Au:    0.100104   -0.198721
   6 Au:    0.083172   -0.108176
   7 Au:    0.064481   -0.070690
   8 Au:    0.091746   -0.178547
   9 Au:    0.068666   -0.170140
  10 Cr:   -0.847807    3.296996

  Mayer bond orders larger than 0.100000
B(  0-Au,  4-Au) :   0.4129 B(  0-Au,  5-Au) :   0.2223 B(  0-Au, 10-Cr) :   0.6962
B(  1-Au,  2-Au) :   0.3871 B(  1-Au,  5-Au) :   0.3089 B(  1-Au, 10-Cr) :   0.6320
B(  2-Au,  3-Au) :   0.2033 B(  2-Au,  9-Au) :   0.2021 B(  2-Au, 10-Cr) :   0.5834
B(  3-Au,  4-Au) :   0.2423 B(  3-Au,  8-Au) :   0.2054 B(  3-Au, 10-Cr) :   0.5883
B(  4-Au,  8-Au) :   0.2279 B(  4-Au, 10-Cr) :   0.5866 B(  5-Au,  6-Au) :   0.2212
B(  5-Au, 10-Cr) :   0.3493 B(  6-Au,  7-Au) :   0.4110 B(  6-Au, 10-Cr) :   0.6968
B(  7-Au,  8-Au) :   0.2299 B(  7-Au,  9-Au) :   0.2326 B(  7-Au, 10-Cr) :   0.6003
B(  8-Au,  9-Au) :   0.1991 B(  8-Au, 10-Cr) :   0.3727 B(  9-Au, 10-Cr) :   0.6095

FINAL SINGLE POINT ENERGY     -2402.856398500907

DIPOLE MOMENT
-------------
                                X             Y             Z
Electronic contribution:     -0.93635       0.04410      14.26176
Nuclear contribution   :      0.97020      -0.08621     -14.32350
                        -----------------------------------------
Total Dipole Moment    :      0.03385      -0.04211      -0.06175
                        -----------------------------------------
Magnitude (a.u.)       :      0.08205
Magnitude (Debye)      :      0.20856

Rotational constants in cm-1:     0.002268     0.001506     0.001228
Rotational constants in MHz :    67.984950    45.156662    36.814876

                             ****ORCA TERMINATED NORMALLY****
TOTAL RUN TIME: 0 days 0 hours 5 minutes 51 seconds 221 msec
