                         Program Version 5.0.3 -  RELEASE  -
|  1> !SC-NEVPT2 def2-TZVP def2-TZVP/C
|  2> !MOREAD RIJCOSX def2/J
|  3> %maxcore 4000
|  4> %moinp "casscf.gbw"
|  5> %pal nprocs 8 end
|  6>
|  7> %casscf
|  8>  mult 5,3
|  9>  bweight 1,1
| 10>  nroots 5,45
| 11>  nel 6
| 12>  norb 5
| 13>  ptsettings
| 14>   d4tpre 1e-14 # default = 1e-10
| 15>   d3tpre 1e-14
| 16>  end
| 17>  rel
| 18>    dosoc true
| 19>    gtensor true
| 20>  end
| 21> end
| 22>
| 23>
| 24> *xyzfile 0 5 pbe.xyz
| 25>
| 26>
| 27>                          ****END OF INPUT****

CARTESIAN COORDINATES (ANGSTROEM)
---------------------------------
  Au     7.057391   10.411522    9.407118
  Au     5.472471    6.644333    9.761892
  Au     4.303109    9.113351    9.483203
  Au     4.932866   11.248723    7.741193
  Au     8.233911    7.945797    9.682002
  Au     7.663364    5.493806    8.398872
  Au     7.123689   10.098089    6.378071
  Au     4.362246    8.796688    6.458187
  Au     5.538959    6.331027    6.732806
  Au     8.293284    7.629195    6.656995
  Fe     6.298123    8.371264    8.070028

 Total Charge           Charge          ....    0
 Multiplicity           Mult            ....    5
 Number of Electrons    NEL             ....  216
 Basis Dimension        Dim             ....  445

ORBITAL ENERGIES
----------------

  NO   OCC          E(Eh)            E(eV)
   0   2.0000    -261.382000     -7112.5658
   1   2.0000     -31.949246      -869.3832
   2   2.0000     -27.429541      -746.3958
   3   2.0000     -27.428453      -746.3662
   4   2.0000     -27.428453      -746.3662
   5   2.0000      -4.715332      -128.3107
   6   2.0000      -4.715306      -128.3100
   7   2.0000      -4.715237      -128.3081
   8   2.0000      -4.715221      -128.3077
   9   2.0000      -4.714994      -128.3015
  10   2.0000      -4.714961      -128.3006
  11   2.0000      -4.714902      -128.2990
  12   2.0000      -4.714881      -128.2984
  13   2.0000      -4.713287      -128.2551
  14   2.0000      -4.713285      -128.2550
  15   2.0000      -4.184888      -113.8766
  16   2.0000      -2.767346       -75.3033
  17   2.0000      -2.766877       -75.2906
  18   2.0000      -2.766847       -75.2897
  19   2.0000      -2.757202       -75.0273
  20   2.0000      -2.756565       -75.0099
  21   2.0000      -2.754542       -74.9549
  22   2.0000      -2.754285       -74.9479
  23   2.0000      -2.754278       -74.9477
  24   2.0000      -2.754158       -74.9444
  25   2.0000      -2.754129       -74.9437
  26   2.0000      -2.752965       -74.9120
  27   2.0000      -2.752236       -74.8921
  28   2.0000      -2.751145       -74.8625
  29   2.0000      -2.751088       -74.8609
  30   2.0000      -2.751079       -74.8607
  31   2.0000      -2.750301       -74.8395
  32   2.0000      -2.750002       -74.8313
  33   2.0000      -2.749989       -74.8310
  34   2.0000      -2.749196       -74.8094
  35   2.0000      -2.748659       -74.7948
  36   2.0000      -2.747961       -74.7758
  37   2.0000      -2.747914       -74.7746
  38   2.0000      -2.747438       -74.7616
  39   2.0000      -2.747385       -74.7601
  40   2.0000      -2.747353       -74.7593
  41   2.0000      -2.747220       -74.7557
  42   2.0000      -2.746972       -74.7489
  43   2.0000      -2.746426       -74.7340
  44   2.0000      -2.746261       -74.7296
  45   2.0000      -2.746252       -74.7293
  46   2.0000      -2.745566       -74.7106
  47   2.0000      -2.745018       -74.6957
  48   2.0000      -2.745012       -74.6956
  49   2.0000      -0.585823       -15.9411
  50   2.0000      -0.557426       -15.1683
  51   2.0000      -0.551637       -15.0108
  52   2.0000      -0.540783       -14.7155
  53   2.0000      -0.540580       -14.7099
  54   2.0000      -0.535432       -14.5698
  55   2.0000      -0.529329       -14.4038
  56   2.0000      -0.529114       -14.3979
  57   2.0000      -0.527104       -14.3432
  58   2.0000      -0.526082       -14.3154
  59   2.0000      -0.524869       -14.2824
  60   2.0000      -0.524557       -14.2739
  61   2.0000      -0.523542       -14.2463
  62   2.0000      -0.520966       -14.1762
  63   2.0000      -0.520682       -14.1685
  64   2.0000      -0.520558       -14.1651
  65   2.0000      -0.518267       -14.1028
  66   2.0000      -0.500174       -13.6104
  67   2.0000      -0.495125       -13.4730
  68   2.0000      -0.494854       -13.4657
  69   2.0000      -0.489586       -13.3223
  70   2.0000      -0.489365       -13.3163
  71   2.0000      -0.487483       -13.2651
  72   2.0000      -0.485424       -13.2091
  73   2.0000      -0.481484       -13.1018
  74   2.0000      -0.481273       -13.0961
  75   2.0000      -0.480889       -13.0856
  76   2.0000      -0.478740       -13.0272
  77   2.0000      -0.478062       -13.0087
  78   2.0000      -0.477711       -12.9992
  79   2.0000      -0.471035       -12.8175
  80   2.0000      -0.467376       -12.7179
  81   2.0000      -0.458790       -12.4843
  82   2.0000      -0.457540       -12.4503
  83   2.0000      -0.451029       -12.2731
  84   2.0000      -0.449434       -12.2297
  85   2.0000      -0.448791       -12.2122
  86   2.0000      -0.448611       -12.2073
  87   2.0000      -0.444005       -12.0820
  88   2.0000      -0.440302       -11.9812
  89   2.0000      -0.439650       -11.9635
  90   2.0000      -0.437505       -11.9051
  91   2.0000      -0.437160       -11.8957
  92   2.0000      -0.435578       -11.8527
  93   2.0000      -0.435467       -11.8497
  94   2.0000      -0.430519       -11.7150
  95   2.0000      -0.430381       -11.7113
  96   2.0000      -0.427795       -11.6409
  97   2.0000      -0.419304       -11.4098
  98   2.0000      -0.419140       -11.4054
  99   2.0000      -0.402342       -10.9483
 100   2.0000      -0.348815        -9.4917
 101   2.0000      -0.303868        -8.2687
 102   2.0000      -0.303373        -8.2552
 103   2.0000      -0.229358        -6.2412
 104   2.0000      -0.224735        -6.1154
 105   1.2000      -0.264070        -7.1857
 106   1.2000      -0.238385        -6.4868
 107   1.2000      -0.264148        -7.1878
 108   1.2000      -0.263923        -7.1817
 109   1.2000      -0.265138        -7.2148
 110   0.0000      -0.042313        -1.1514
 111   0.0000      -0.042027        -1.1436
 112   0.0000       0.001023         0.0278
 113   0.0000       0.014426         0.3926
 114   0.0000       0.029983         0.8159

MULLIKEN ATOMIC CHARGES AND SPIN DENSITIES
------------------------------------------
   0 Au:    0.233247    0.012560
   1 Au:    0.231877    0.012605
   2 Au:    0.234063    0.012531
   3 Au:    0.082295    0.004991
   4 Au:    0.232428    0.012583
   5 Au:    0.082282    0.004991
   6 Au:    0.231875    0.012606
   7 Au:    0.232432    0.012583
   8 Au:    0.233245    0.012560
   9 Au:    0.234070    0.012530
  10 Fe:   -2.027816    2.889459
Sum of atomic charges       :    0.0000000

LOEWDIN ATOMIC CHARGES AND SPIN DENSITIES
-----------------------------------------
   0 Au:    0.021860    0.015736
   1 Au:    0.021374    0.015778
   2 Au:    0.022108    0.015709
   3 Au:    0.074657    0.006348
   4 Au:    0.021533    0.015757
   5 Au:    0.074651    0.006348
   6 Au:    0.021375    0.015779
   7 Au:    0.021533    0.015758
   8 Au:    0.021862    0.015735
   9 Au:    0.022109    0.015708
  10 Fe:   -0.323063    2.861343

  Mayer bond orders larger than 0.100000
B(  0-Au,  3-Au) :   0.1741 B(  0-Au,  4-Au) :   0.4986 B(  0-Au, 10-Fe) :   0.4816
B(  1-Au,  2-Au) :   0.4985 B(  1-Au,  5-Au) :   0.1744 B(  1-Au, 10-Fe) :   0.4822
B(  2-Au,  3-Au) :   0.1744 B(  2-Au, 10-Fe) :   0.4812 B(  3-Au,  5-Au) :   0.1416
B(  3-Au,  6-Au) :   0.1744 B(  3-Au,  7-Au) :   0.1744 B(  3-Au, 10-Fe) :   0.3234
B(  4-Au,  5-Au) :   0.1744 B(  4-Au, 10-Fe) :   0.4818 B(  5-Au,  8-Au) :   0.1741
B(  5-Au,  9-Au) :   0.1744 B(  5-Au, 10-Fe) :   0.3234 B(  6-Au,  9-Au) :   0.4985
B(  6-Au, 10-Fe) :   0.4823 B(  7-Au,  8-Au) :   0.4986 B(  7-Au, 10-Fe) :   0.4818
B(  8-Au, 10-Fe) :   0.4816 B(  9-Au, 10-Fe) :   0.4812

FINAL SINGLE POINT ENERGY     -2615.491866556230

DIPOLE MOMENT
-------------
                                X             Y             Z
Electronic contribution:      0.00021      -0.00043       0.00023
Nuclear contribution   :     -0.00021       0.00043      -0.00024
                        -----------------------------------------
Total Dipole Moment    :     -0.00000       0.00000      -0.00000
                        -----------------------------------------
Magnitude (a.u.)       :      0.00000
Magnitude (Debye)      :      0.00001

Rotational constants in cm-1:     0.002305     0.001582     0.001579
Rotational constants in MHz :    69.093878    47.412734    47.350976

                             ****ORCA TERMINATED NORMALLY****
TOTAL RUN TIME: 0 days 0 hours 40 minutes 33 seconds 908 msec
