                         Program Version 5.0.3 -  RELEASE  -
|  1> !RI-B2PLYP def2-TZVP def2-TZVP/C
|  2> !RIJCOSX VERYSLOWCONV
|  3>
|  4> %scf
|  5>   AutoTRAHIter 200
|  6>   maxiter 400
|  7> end
|  8>
|  9>
| 10> %pal nprocs 6 end
| 11>
| 12> *xyzfile 0 5 pbe.xyz
| 13>
| 14> $new_job
| 15>
| 16> !RI-B2PLYP def2-TZVP def2-TZVP/C
| 17> !RIJCOSX VERYSLOWCONV
| 18>
| 19> %scf
| 20>   AutoTRAHIter 200
| 21>   maxiter 400
| 22> end
| 23>
| 24>
| 25> %pal nprocs 6 end
| 26>
| 27> *xyzfile 0 3 pbe.xyz
| 28>
| 29>
| 30>
| 31>
| 32>
| 33>                          ****END OF INPUT****
 Total Charge           Charge          ....    0
 Multiplicity           Mult            ....    5
 Number of Electrons    NEL             ....  290
MP2 TOTAL ENERGY:    -2942.503303751 Eh
FINAL SINGLE POINT ENERGY     -2942.503303751422

CARTESIAN COORDINATES (ANGSTROEM)
---------------------------------
  Au    10.221843   10.202972    8.580339
  Au     8.542639   10.534900    6.254388
  Au    11.368035   10.102008    6.035668
  Au    11.834850    8.008103    7.963459
  Au     9.224248    6.093926    4.354954
  Au    10.903809    5.830389    6.584368
  Au    10.271005    8.664520    3.977042
  Au     7.548820    8.264878    4.720997
  Au     6.043457    9.416806    6.608954
  Au     4.922993    9.514754    9.103219
  Au     6.506149    7.371197    8.482437
  Au     7.601929   10.036758    9.023078
  Au     8.071383    5.930460    6.863820
  Au     9.209865    7.534070    9.016068
  Cr     9.580311    8.110915    6.463563

 Multiplicity           Mult            ....    3
 Number of Electrons    NEL             ....  290
 Basis Dimension        Dim             ....  605

ORBITAL ENERGIES
----------------
                 SPIN UP ORBITALS
  NO   OCC          E(Eh)            E(eV)
   0   1.0000    -217.769384     -5925.8062
   1   1.0000     -25.458011      -692.7477
   2   1.0000     -21.597661      -587.7022
   3   1.0000     -21.597436      -587.6961
   4   1.0000     -21.590966      -587.5200
   5   1.0000      -4.402808      -119.8065
   6   1.0000      -4.402789      -119.8060
   7   1.0000      -4.400634      -119.7473
   8   1.0000      -4.400612      -119.7467
   9   1.0000      -4.395915      -119.6189
  10   1.0000      -4.395747      -119.6143
  11   1.0000      -4.395678      -119.6125
  12   1.0000      -4.392049      -119.5137
  13   1.0000      -4.392021      -119.5130
  14   1.0000      -4.391329      -119.4942
  15   1.0000      -4.390097      -119.4606
  16   1.0000      -4.389932      -119.4561
  17   1.0000      -4.388789      -119.4250
  18   1.0000      -4.384788      -119.3161
  19   1.0000      -3.243882       -88.2705
  20   1.0000      -2.523876       -68.6782
  21   1.0000      -2.523864       -68.6778
  22   1.0000      -2.521764       -68.6207
  23   1.0000      -2.521575       -68.6155
  24   1.0000      -2.521204       -68.6054
  25   1.0000      -2.520912       -68.5975
  26   1.0000      -2.519451       -68.5577
  27   1.0000      -2.519320       -68.5542
  28   1.0000      -2.518016       -68.5187
  29   1.0000      -2.517551       -68.5060
  30   1.0000      -2.517111       -68.4941
  31   1.0000      -2.516485       -68.4770
  32   1.0000      -2.516171       -68.4685
  33   1.0000      -2.514619       -68.4263
  34   1.0000      -2.514059       -68.4110
  35   1.0000      -2.513798       -68.4039
  36   1.0000      -2.513770       -68.4032
  37   1.0000      -2.513226       -68.3884
  38   1.0000      -2.512680       -68.3735
  39   1.0000      -2.512449       -68.3672
  40   1.0000      -2.511649       -68.3455
  41   1.0000      -2.510647       -68.3182
  42   1.0000      -2.510517       -68.3147
  43   1.0000      -2.509803       -68.2952
  44   1.0000      -2.509448       -68.2855
  45   1.0000      -2.509435       -68.2852
  46   1.0000      -2.508794       -68.2678
  47   1.0000      -2.508006       -68.2463
  48   1.0000      -2.507902       -68.2435
  49   1.0000      -2.506644       -68.2092
  50   1.0000      -2.506434       -68.2035
  51   1.0000      -2.506222       -68.1978
  52   1.0000      -2.505604       -68.1810
  53   1.0000      -2.505538       -68.1791
  54   1.0000      -2.505018       -68.1650
  55   1.0000      -2.504828       -68.1598
  56   1.0000      -2.504770       -68.1583
  57   1.0000      -2.503478       -68.1231
  58   1.0000      -2.503185       -68.1151
  59   1.0000      -2.502107       -68.0858
  60   1.0000      -2.499876       -68.0251
  61   1.0000      -2.499522       -68.0155
  62   1.0000      -2.134583       -58.0849
  63   1.0000      -2.125126       -57.8276
  64   1.0000      -2.124401       -57.8079
  65   1.0000      -0.500151       -13.6098
  66   1.0000      -0.484609       -13.1869
  67   1.0000      -0.477984       -13.0066
  68   1.0000      -0.475560       -12.9406
  69   1.0000      -0.474271       -12.9056
  70   1.0000      -0.466185       -12.6855
  71   1.0000      -0.463926       -12.6241
  72   1.0000      -0.463668       -12.6171
  73   1.0000      -0.459305       -12.4983
  74   1.0000      -0.455007       -12.3814
  75   1.0000      -0.454417       -12.3653
  76   1.0000      -0.448187       -12.1958
  77   1.0000      -0.447891       -12.1877
  78   1.0000      -0.446104       -12.1391
  79   1.0000      -0.444923       -12.1070
  80   1.0000      -0.442498       -12.0410
  81   1.0000      -0.441926       -12.0254
  82   1.0000      -0.439594       -11.9620
  83   1.0000      -0.436687       -11.8829
  84   1.0000      -0.432761       -11.7760
  85   1.0000      -0.430307       -11.7092
  86   1.0000      -0.430091       -11.7034
  87   1.0000      -0.426566       -11.6075
  88   1.0000      -0.425431       -11.5766
  89   1.0000      -0.424346       -11.5470
  90   1.0000      -0.423319       -11.5191
  91   1.0000      -0.418267       -11.3816
  92   1.0000      -0.416466       -11.3326
  93   1.0000      -0.413382       -11.2487
  94   1.0000      -0.413023       -11.2389
  95   1.0000      -0.409847       -11.1525
  96   1.0000      -0.408382       -11.1126
  97   1.0000      -0.400342       -10.8939
  98   1.0000      -0.396684       -10.7943
  99   1.0000      -0.394047       -10.7226
 100   1.0000      -0.393400       -10.7050
 101   1.0000      -0.390598       -10.6287
 102   1.0000      -0.390497       -10.6260
 103   1.0000      -0.388005       -10.5582
 104   1.0000      -0.384009       -10.4494
 105   1.0000      -0.383633       -10.4392
 106   1.0000      -0.381872       -10.3913
 107   1.0000      -0.380783       -10.3616
 108   1.0000      -0.378833       -10.3086
 109   1.0000      -0.372426       -10.1342
 110   1.0000      -0.370187       -10.0733
 111   1.0000      -0.369445       -10.0531
 112   1.0000      -0.367905       -10.0112
 113   1.0000      -0.366785        -9.9807
 114   1.0000      -0.365001        -9.9322
 115   1.0000      -0.364445        -9.9171
 116   1.0000      -0.364075        -9.9070
 117   1.0000      -0.362868        -9.8742
 118   1.0000      -0.361778        -9.8445
 119   1.0000      -0.360928        -9.8214
 120   1.0000      -0.360415        -9.8074
 121   1.0000      -0.359086        -9.7712
 122   1.0000      -0.357831        -9.7371
 123   1.0000      -0.353734        -9.6256
 124   1.0000      -0.352827        -9.6009
 125   1.0000      -0.350395        -9.5347
 126   1.0000      -0.348995        -9.4966
 127   1.0000      -0.344436        -9.3726
 128   1.0000      -0.344067        -9.3625
 129   1.0000      -0.340859        -9.2753
 130   1.0000      -0.339638        -9.2420
 131   1.0000      -0.337417        -9.1816
 132   1.0000      -0.336343        -9.1524
 133   1.0000      -0.333515        -9.0754
 134   1.0000      -0.329104        -8.9554
 135   1.0000      -0.326141        -8.8748
 136   1.0000      -0.324556        -8.8316
 137   1.0000      -0.321826        -8.7573
 138   1.0000      -0.321605        -8.7513
 139   1.0000      -0.318010        -8.6535
 140   1.0000      -0.312836        -8.5127
 141   1.0000      -0.300476        -8.1764
 142   1.0000      -0.292717        -7.9652
 143   1.0000      -0.249807        -6.7976
 144   1.0000      -0.241595        -6.5741
 145   1.0000      -0.218457        -5.9445
 146   0.0000      -0.117009        -3.1840
 147   0.0000      -0.111871        -3.0442
 148   0.0000      -0.078617        -2.1393
 149   0.0000      -0.069937        -1.9031
 150   0.0000      -0.058267        -1.5855

                 SPIN DOWN ORBITALS
  NO   OCC          E(Eh)            E(eV)
   0   1.0000    -217.768055     -5925.7700
   1   1.0000     -25.388974      -690.8691
   2   1.0000     -21.539424      -586.1175
   3   1.0000     -21.537446      -586.0637
   4   1.0000     -21.517848      -585.5304
   5   1.0000      -4.403137      -119.8155
   6   1.0000      -4.403105      -119.8146
   7   1.0000      -4.400743      -119.7503
   8   1.0000      -4.400718      -119.7496
   9   1.0000      -4.396106      -119.6241
  10   1.0000      -4.395880      -119.6180
  11   1.0000      -4.395849      -119.6171
  12   1.0000      -4.392406      -119.5235
  13   1.0000      -4.392390      -119.5230
  14   1.0000      -4.391560      -119.5004
  15   1.0000      -4.390339      -119.4672
  16   1.0000      -4.390173      -119.4627
  17   1.0000      -4.389213      -119.4366
  18   1.0000      -4.385447      -119.3341
  19   1.0000      -3.033082       -82.5344
  20   1.0000      -2.522931       -68.6525
  21   1.0000      -2.522911       -68.6519
  22   1.0000      -2.521917       -68.6248
  23   1.0000      -2.521801       -68.6217
  24   1.0000      -2.520714       -68.5921
  25   1.0000      -2.520451       -68.5849
  26   1.0000      -2.518929       -68.5435
  27   1.0000      -2.518779       -68.5395
  28   1.0000      -2.517750       -68.5115
  29   1.0000      -2.517384       -68.5015
  30   1.0000      -2.516743       -68.4840
  31   1.0000      -2.515560       -68.4519
  32   1.0000      -2.515277       -68.4442
  33   1.0000      -2.514355       -68.4191
  34   1.0000      -2.513968       -68.4086
  35   1.0000      -2.513700       -68.4013
  36   1.0000      -2.513466       -68.3949
  37   1.0000      -2.512981       -68.3817
  38   1.0000      -2.512113       -68.3581
  39   1.0000      -2.512038       -68.3560
  40   1.0000      -2.511576       -68.3434
  41   1.0000      -2.510721       -68.3202
  42   1.0000      -2.510626       -68.3176
  43   1.0000      -2.509796       -68.2950
  44   1.0000      -2.509397       -68.2842
  45   1.0000      -2.509228       -68.2796
  46   1.0000      -2.508871       -68.2698
  47   1.0000      -2.508304       -68.2544
  48   1.0000      -2.508101       -68.2489
  49   1.0000      -2.506700       -68.2108
  50   1.0000      -2.506648       -68.2093
  51   1.0000      -2.506210       -68.1974
  52   1.0000      -2.505962       -68.1907
  53   1.0000      -2.505891       -68.1888
  54   1.0000      -2.505318       -68.1732
  55   1.0000      -2.504973       -68.1638
  56   1.0000      -2.504600       -68.1536
  57   1.0000      -2.503773       -68.1311
  58   1.0000      -2.503248       -68.1168
  59   1.0000      -2.502935       -68.1083
  60   1.0000      -2.500579       -68.0442
  61   1.0000      -2.500145       -68.0324
  62   1.0000      -1.903978       -51.8099
  63   1.0000      -1.898020       -51.6478
  64   1.0000      -1.855321       -50.4859
  65   1.0000      -0.493186       -13.4203
  66   1.0000      -0.477062       -12.9815
  67   1.0000      -0.468600       -12.7513
  68   1.0000      -0.468070       -12.7368
  69   1.0000      -0.464774       -12.6472
  70   1.0000      -0.462409       -12.5828
  71   1.0000      -0.459087       -12.4924
  72   1.0000      -0.458752       -12.4833
  73   1.0000      -0.455132       -12.3848
  74   1.0000      -0.454103       -12.3568
  75   1.0000      -0.451533       -12.2868
  76   1.0000      -0.449752       -12.2384
  77   1.0000      -0.447063       -12.1652
  78   1.0000      -0.446578       -12.1520
  79   1.0000      -0.445390       -12.1197
  80   1.0000      -0.441129       -12.0037
  81   1.0000      -0.440704       -11.9922
  82   1.0000      -0.437800       -11.9132
  83   1.0000      -0.432978       -11.7819
  84   1.0000      -0.432248       -11.7621
  85   1.0000      -0.431776       -11.7492
  86   1.0000      -0.430650       -11.7186
  87   1.0000      -0.426437       -11.6039
  88   1.0000      -0.425446       -11.5770
  89   1.0000      -0.423840       -11.5333
  90   1.0000      -0.421893       -11.4803
  91   1.0000      -0.418987       -11.4012
  92   1.0000      -0.414773       -11.2866
  93   1.0000      -0.413148       -11.2423
  94   1.0000      -0.411742       -11.2041
  95   1.0000      -0.404076       -10.9955
  96   1.0000      -0.403907       -10.9909
  97   1.0000      -0.398584       -10.8460
  98   1.0000      -0.397167       -10.8075
  99   1.0000      -0.394972       -10.7477
 100   1.0000      -0.390222       -10.6185
 101   1.0000      -0.389580       -10.6010
 102   1.0000      -0.386356       -10.5133
 103   1.0000      -0.385531       -10.4908
 104   1.0000      -0.383475       -10.4349
 105   1.0000      -0.380219       -10.3463
 106   1.0000      -0.379307       -10.3215
 107   1.0000      -0.376479       -10.2445
 108   1.0000      -0.374327       -10.1860
 109   1.0000      -0.371264       -10.1026
 110   1.0000      -0.370429       -10.0799
 111   1.0000      -0.368609       -10.0304
 112   1.0000      -0.366562        -9.9747
 113   1.0000      -0.365192        -9.9374
 114   1.0000      -0.364267        -9.9122
 115   1.0000      -0.363707        -9.8970
 116   1.0000      -0.362859        -9.8739
 117   1.0000      -0.361833        -9.8460
 118   1.0000      -0.361460        -9.8358
 119   1.0000      -0.360986        -9.8229
 120   1.0000      -0.360448        -9.8083
 121   1.0000      -0.356579        -9.7030
 122   1.0000      -0.354046        -9.6341
 123   1.0000      -0.353691        -9.6244
 124   1.0000      -0.351918        -9.5762
 125   1.0000      -0.345912        -9.4127
 126   1.0000      -0.345435        -9.3998
 127   1.0000      -0.342191        -9.3115
 128   1.0000      -0.341280        -9.2867
 129   1.0000      -0.338510        -9.2113
 130   1.0000      -0.338052        -9.1989
 131   1.0000      -0.335140        -9.1196
 132   1.0000      -0.328715        -8.9448
 133   1.0000      -0.328145        -8.9293
 134   1.0000      -0.324760        -8.8372
 135   1.0000      -0.323459        -8.8018
 136   1.0000      -0.319037        -8.6814
 137   1.0000      -0.316668        -8.6170
 138   1.0000      -0.305392        -8.3102
 139   1.0000      -0.252520        -6.8714
 140   1.0000      -0.239067        -6.5053
 141   1.0000      -0.229311        -6.2399
 142   1.0000      -0.221000        -6.0137
 143   1.0000      -0.208178        -5.6648
 144   0.0000      -0.080032        -2.1778
 145   0.0000      -0.064797        -1.7632
 146   0.0000      -0.061398        -1.6707
 147   0.0000      -0.057833        -1.5737
 148   0.0000      -0.051644        -1.4053

MULLIKEN ATOMIC CHARGES AND SPIN POPULATIONS
--------------------------------------------
   0 Au:    0.431975   -0.119648
   1 Au:    0.356663   -0.079419
   2 Au:    0.434239   -0.089504
   3 Au:    0.435128   -0.088259
   4 Au:    0.466522   -0.071263
   5 Au:    0.386086   -0.082489
   6 Au:    0.387092   -0.081296
   7 Au:    0.344266   -0.110548
   8 Au:    0.066508   -0.047149
   9 Au:    0.466698   -0.013591
  10 Au:    0.048861   -0.048062
  11 Au:   -0.238657    0.055390
  12 Au:    0.355255   -0.112102
  13 Au:    0.362470   -0.078280
  14 Cr:   -4.303107    2.966221
Sum of atomic charges         :    0.0000000

LOEWDIN ATOMIC CHARGES AND SPIN POPULATIONS
-------------------------------------------
   0 Au:    0.063853   -0.153050
   1 Au:    0.089570   -0.091455
   2 Au:    0.115647   -0.148073
   3 Au:    0.115781   -0.147571
   4 Au:    0.109343   -0.145630
   5 Au:    0.128981   -0.111373
   6 Au:    0.129042   -0.111455
   7 Au:    0.075562   -0.134501
   8 Au:   -0.017453   -0.060905
   9 Au:    0.167642   -0.021604
  10 Au:   -0.020438   -0.061482
  11 Au:   -0.065659   -0.009938
  12 Au:    0.076397   -0.135307
  13 Au:    0.091172   -0.091678
  14 Cr:   -1.059441    3.424023

  Mayer bond orders larger than 0.100000
B(  0-Au,  1-Au) :   0.1334 B(  0-Au,  2-Au) :   0.1468 B(  0-Au,  3-Au) :   0.1467
B(  0-Au, 11-Au) :   0.3931 B(  0-Au, 13-Au) :   0.1325 B(  0-Au, 14-Cr) :   0.4397
B(  1-Au,  2-Au) :   0.1081 B(  1-Au,  5-Au) :   0.1141 B(  1-Au,  7-Au) :   0.1239
B(  1-Au,  8-Au) :   0.2275 B(  1-Au, 11-Au) :   0.1707 B(  1-Au, 14-Cr) :   0.5426
B(  2-Au,  3-Au) :   0.1728 B(  2-Au,  6-Au) :   0.2598 B(  2-Au, 12-Au) :   0.1164
B(  2-Au, 14-Cr) :   0.5835 B(  3-Au,  5-Au) :   0.2591 B(  3-Au,  7-Au) :   0.1169
B(  3-Au, 13-Au) :   0.1076 B(  3-Au, 14-Cr) :   0.5834 B(  4-Au,  5-Au) :   0.1967
B(  4-Au,  6-Au) :   0.1974 B(  4-Au,  7-Au) :   0.2020 B(  4-Au, 12-Au) :   0.2011
B(  4-Au, 14-Cr) :   0.4053 B(  5-Au, 12-Au) :   0.1407 B(  5-Au, 14-Cr) :   0.6054
B(  6-Au,  7-Au) :   0.1392 B(  6-Au, 13-Au) :   0.1146 B(  6-Au, 14-Cr) :   0.6055
B(  7-Au,  8-Au) :   0.2707 B(  7-Au, 12-Au) :   0.1251 B(  7-Au, 14-Cr) :   0.5462
B(  8-Au,  9-Au) :   0.3007 B(  8-Au, 10-Au) :   0.2416 B(  8-Au, 11-Au) :   0.2198
B(  8-Au, 14-Cr) :   0.3982 B(  9-Au, 10-Au) :   0.3058 B(  9-Au, 11-Au) :   0.3731
B( 10-Au, 11-Au) :   0.2245 B( 10-Au, 12-Au) :   0.2705 B( 10-Au, 13-Au) :   0.2290
B( 10-Au, 14-Cr) :   0.4004 B( 11-Au, 13-Au) :   0.1685 B( 11-Au, 14-Cr) :   0.3723
B( 12-Au, 13-Au) :   0.1211 B( 12-Au, 14-Cr) :   0.5409 B( 13-Au, 14-Cr) :   0.5435

MP2 TOTAL ENERGY:    -2942.507369677 Eh
FINAL SINGLE POINT ENERGY     -2942.507369677078

DIPOLE MOMENT
-------------
                                X             Y             Z
Electronic contribution:    -29.83636       9.91261      17.77856
Nuclear contribution   :     29.81147      -9.94174     -17.80368
                        -----------------------------------------
Total Dipole Moment    :     -0.02489      -0.02913      -0.02512
                        -----------------------------------------
Magnitude (a.u.)       :      0.04581
Magnitude (Debye)      :      0.11645

Rotational constants in cm-1:     0.001278     0.000891     0.000822
Rotational constants in MHz :    38.326100    26.721142    24.642903

                             ****ORCA TERMINATED NORMALLY****
TOTAL RUN TIME: 0 days 2 hours 11 minutes 37 seconds 515 msec
