                         Program Version 5.0.3 -  RELEASE  -
|  1> !PBE def2-TZVP VERYSLOWCONV
|  2>
|  3> %scf
|  4>   AutoTRAHIter 200
|  5>   maxiter 400
|  6> end
|  7>
|  8>
|  9> %pal nprocs 6 end
| 10>
| 11> *xyzfile 0 5 pbe.xyz
| 12>
| 13> $new_job
| 14>
| 15> !PBE def2-TZVP VERYSLOWCONV
| 16>
| 17> %scf
| 18>   AutoTRAHIter 200
| 19>   maxiter 400
| 20> end
| 21>
| 22>
| 23> %pal nprocs 6 end
| 24>
| 25> *xyzfile 0 3 pbe.xyz
| 26>
| 27>
| 28>
| 29>
| 30>
| 31>                          ****END OF INPUT****
 Total Charge           Charge          ....    0
 Multiplicity           Mult            ....    5
 Number of Electrons    NEL             ....  290
FINAL SINGLE POINT ENERGY     -2945.820872945035

CARTESIAN COORDINATES (ANGSTROEM)
---------------------------------
  Au    10.221843   10.202972    8.580339
  Au     8.542639   10.534900    6.254388
  Au    11.368035   10.102008    6.035668
  Au    11.834850    8.008103    7.963459
  Au     9.224248    6.093926    4.354954
  Au    10.903809    5.830389    6.584368
  Au    10.271005    8.664520    3.977042
  Au     7.548820    8.264878    4.720997
  Au     6.043457    9.416806    6.608954
  Au     4.922993    9.514754    9.103219
  Au     6.506149    7.371197    8.482437
  Au     7.601929   10.036758    9.023078
  Au     8.071383    5.930460    6.863820
  Au     9.209865    7.534070    9.016068
  Cr     9.580311    8.110915    6.463563

 Multiplicity           Mult            ....    3
 Number of Electrons    NEL             ....  290
 Basis Dimension        Dim             ....  605

ORBITAL ENERGIES
----------------
                 SPIN UP ORBITALS
  NO   OCC          E(Eh)            E(eV)
   0   1.0000    -214.513539     -5837.2102
   1   1.0000     -24.315946      -661.6705
   2   1.0000     -20.682068      -562.7877
   3   1.0000     -20.679916      -562.7291
   4   1.0000     -20.676908      -562.6473
   5   1.0000      -4.031655      -109.7069
   6   1.0000      -4.031621      -109.7060
   7   1.0000      -4.031009      -109.6893
   8   1.0000      -4.030970      -109.6883
   9   1.0000      -4.025813      -109.5479
  10   1.0000      -4.025721      -109.5454
  11   1.0000      -4.024525      -109.5129
  12   1.0000      -4.021948      -109.4428
  13   1.0000      -4.021816      -109.4392
  14   1.0000      -4.021758      -109.4376
  15   1.0000      -4.021744      -109.4372
  16   1.0000      -4.019471      -109.3754
  17   1.0000      -4.019145      -109.3665
  18   1.0000      -4.016079      -109.2831
  19   1.0000      -2.812074       -76.5204
  20   1.0000      -2.248727       -61.1910
  21   1.0000      -2.248708       -61.1905
  22   1.0000      -2.248143       -61.1751
  23   1.0000      -2.247916       -61.1689
  24   1.0000      -2.246554       -61.1318
  25   1.0000      -2.246392       -61.1274
  26   1.0000      -2.244637       -61.0797
  27   1.0000      -2.244604       -61.0788
  28   1.0000      -2.242684       -61.0265
  29   1.0000      -2.242081       -61.0101
  30   1.0000      -2.241931       -61.0060
  31   1.0000      -2.240882       -60.9775
  32   1.0000      -2.240615       -60.9702
  33   1.0000      -2.240524       -60.9678
  34   1.0000      -2.239650       -60.9440
  35   1.0000      -2.239621       -60.9432
  36   1.0000      -2.239133       -60.9299
  37   1.0000      -2.238645       -60.9166
  38   1.0000      -2.238508       -60.9129
  39   1.0000      -2.237837       -60.8946
  40   1.0000      -2.237361       -60.8817
  41   1.0000      -2.236114       -60.8477
  42   1.0000      -2.236013       -60.8450
  43   1.0000      -2.235313       -60.8260
  44   1.0000      -2.235069       -60.8193
  45   1.0000      -2.234709       -60.8095
  46   1.0000      -2.234427       -60.8019
  47   1.0000      -2.234331       -60.7992
  48   1.0000      -2.233314       -60.7716
  49   1.0000      -2.232997       -60.7629
  50   1.0000      -2.232738       -60.7559
  51   1.0000      -2.232595       -60.7520
  52   1.0000      -2.232138       -60.7396
  53   1.0000      -2.232072       -60.7378
  54   1.0000      -2.230596       -60.6976
  55   1.0000      -2.230183       -60.6864
  56   1.0000      -2.229691       -60.6730
  57   1.0000      -2.229619       -60.6710
  58   1.0000      -2.229338       -60.6634
  59   1.0000      -2.229097       -60.6568
  60   1.0000      -2.226313       -60.5811
  61   1.0000      -2.225522       -60.5595
  62   1.0000      -1.804350       -49.0989
  63   1.0000      -1.801992       -49.0347
  64   1.0000      -1.797370       -48.9089
  65   1.0000      -0.423813       -11.5325
  66   1.0000      -0.392261       -10.6740
  67   1.0000      -0.382722       -10.4144
  68   1.0000      -0.379174       -10.3178
  69   1.0000      -0.372052       -10.1241
  70   1.0000      -0.367856       -10.0099
  71   1.0000      -0.364874        -9.9287
  72   1.0000      -0.362720        -9.8701
  73   1.0000      -0.359335        -9.7780
  74   1.0000      -0.355649        -9.6777
  75   1.0000      -0.352643        -9.5959
  76   1.0000      -0.351165        -9.5557
  77   1.0000      -0.344910        -9.3855
  78   1.0000      -0.343935        -9.3590
  79   1.0000      -0.343863        -9.3570
  80   1.0000      -0.341072        -9.2810
  81   1.0000      -0.339494        -9.2381
  82   1.0000      -0.337849        -9.1933
  83   1.0000      -0.335742        -9.1360
  84   1.0000      -0.332171        -9.0388
  85   1.0000      -0.331560        -9.0222
  86   1.0000      -0.327396        -8.9089
  87   1.0000      -0.327300        -8.9063
  88   1.0000      -0.325418        -8.8551
  89   1.0000      -0.323546        -8.8041
  90   1.0000      -0.320167        -8.7122
  91   1.0000      -0.318837        -8.6760
  92   1.0000      -0.316293        -8.6068
  93   1.0000      -0.313817        -8.5394
  94   1.0000      -0.312583        -8.5058
  95   1.0000      -0.308691        -8.3999
  96   1.0000      -0.308004        -8.3812
  97   1.0000      -0.306285        -8.3344
  98   1.0000      -0.298684        -8.1276
  99   1.0000      -0.298239        -8.1155
 100   1.0000      -0.294234        -8.0065
 101   1.0000      -0.294001        -8.0002
 102   1.0000      -0.292872        -7.9695
 103   1.0000      -0.289242        -7.8707
 104   1.0000      -0.284671        -7.7463
 105   1.0000      -0.283626        -7.7178
 106   1.0000      -0.282341        -7.6829
 107   1.0000      -0.280211        -7.6249
 108   1.0000      -0.277938        -7.5631
 109   1.0000      -0.276423        -7.5219
 110   1.0000      -0.275426        -7.4947
 111   1.0000      -0.275088        -7.4855
 112   1.0000      -0.273398        -7.4395
 113   1.0000      -0.271819        -7.3966
 114   1.0000      -0.269952        -7.3458
 115   1.0000      -0.268227        -7.2988
 116   1.0000      -0.267883        -7.2895
 117   1.0000      -0.267430        -7.2771
 118   1.0000      -0.266176        -7.2430
 119   1.0000      -0.264801        -7.2056
 120   1.0000      -0.264202        -7.1893
 121   1.0000      -0.263075        -7.1586
 122   1.0000      -0.262006        -7.1295
 123   1.0000      -0.259411        -7.0589
 124   1.0000      -0.257753        -7.0138
 125   1.0000      -0.257033        -6.9942
 126   1.0000      -0.253052        -6.8859
 127   1.0000      -0.249916        -6.8006
 128   1.0000      -0.249296        -6.7837
 129   1.0000      -0.248623        -6.7654
 130   1.0000      -0.247063        -6.7229
 131   1.0000      -0.246337        -6.7032
 132   1.0000      -0.244813        -6.6617
 133   1.0000      -0.242946        -6.6109
 134   1.0000      -0.241065        -6.5597
 135   1.0000      -0.239397        -6.5143
 136   1.0000      -0.237279        -6.4567
 137   1.0000      -0.236285        -6.4296
 138   1.0000      -0.232199        -6.3185
 139   1.0000      -0.225567        -6.1380
 140   1.0000      -0.222260        -6.0480
 141   1.0000      -0.219876        -5.9831
 142   1.0000      -0.218757        -5.9527
 143   1.0000      -0.213342        -5.8053
 144   1.0000      -0.210761        -5.7351
 145   1.0000      -0.193961        -5.2779
 146   0.0000      -0.182482        -4.9656
 147   0.0000      -0.171007        -4.6533
 148   0.0000      -0.170179        -4.6308
 149   0.0000      -0.136706        -3.7199
 150   0.0000      -0.123638        -3.3644

                 SPIN DOWN ORBITALS
  NO   OCC          E(Eh)            E(eV)
   0   1.0000    -214.513135     -5837.1992
   1   1.0000     -24.273521      -660.5161
   2   1.0000     -20.652243      -561.9761
   3   1.0000     -20.646752      -561.8267
   4   1.0000     -20.642634      -561.7146
   5   1.0000      -4.031425      -109.7006
   6   1.0000      -4.031386      -109.6996
   7   1.0000      -4.030935      -109.6873
   8   1.0000      -4.030896      -109.6862
   9   1.0000      -4.025716      -109.5453
  10   1.0000      -4.025623      -109.5428
  11   1.0000      -4.024560      -109.5138
  12   1.0000      -4.022242      -109.4508
  13   1.0000      -4.022114      -109.4473
  14   1.0000      -4.021588      -109.4330
  15   1.0000      -4.021568      -109.4324
  16   1.0000      -4.019482      -109.3757
  17   1.0000      -4.019428      -109.3742
  18   1.0000      -4.016502      -109.2946
  19   1.0000      -2.698270       -73.4237
  20   1.0000      -2.248355       -61.1809
  21   1.0000      -2.248151       -61.1753
  22   1.0000      -2.248062       -61.1729
  23   1.0000      -2.248027       -61.1719
  24   1.0000      -2.246294       -61.1248
  25   1.0000      -2.246142       -61.1206
  26   1.0000      -2.244632       -61.0795
  27   1.0000      -2.244589       -61.0784
  28   1.0000      -2.242550       -61.0229
  29   1.0000      -2.241805       -61.0026
  30   1.0000      -2.241515       -60.9947
  31   1.0000      -2.241069       -60.9826
  32   1.0000      -2.240457       -60.9659
  33   1.0000      -2.240379       -60.9638
  34   1.0000      -2.239348       -60.9358
  35   1.0000      -2.239250       -60.9331
  36   1.0000      -2.239240       -60.9328
  37   1.0000      -2.238618       -60.9159
  38   1.0000      -2.238513       -60.9130
  39   1.0000      -2.237690       -60.8906
  40   1.0000      -2.237210       -60.8776
  41   1.0000      -2.236415       -60.8559
  42   1.0000      -2.236030       -60.8455
  43   1.0000      -2.235516       -60.8315
  44   1.0000      -2.235051       -60.8188
  45   1.0000      -2.234746       -60.8105
  46   1.0000      -2.234488       -60.8035
  47   1.0000      -2.234382       -60.8006
  48   1.0000      -2.233705       -60.7822
  49   1.0000      -2.233384       -60.7735
  50   1.0000      -2.233007       -60.7632
  51   1.0000      -2.232724       -60.7555
  52   1.0000      -2.232412       -60.7470
  53   1.0000      -2.232140       -60.7396
  54   1.0000      -2.230469       -60.6942
  55   1.0000      -2.230410       -60.6925
  56   1.0000      -2.229979       -60.6808
  57   1.0000      -2.229950       -60.6800
  58   1.0000      -2.229154       -60.6584
  59   1.0000      -2.228902       -60.6515
  60   1.0000      -2.226976       -60.5991
  61   1.0000      -2.225827       -60.5678
  62   1.0000      -1.700760       -46.2800
  63   1.0000      -1.687740       -45.9257
  64   1.0000      -1.679093       -45.6904
  65   1.0000      -0.419259       -11.4086
  66   1.0000      -0.390468       -10.6252
  67   1.0000      -0.382681       -10.4133
  68   1.0000      -0.379744       -10.3334
  69   1.0000      -0.370014       -10.0686
  70   1.0000      -0.364967        -9.9313
  71   1.0000      -0.363192        -9.8830
  72   1.0000      -0.360414        -9.8074
  73   1.0000      -0.358252        -9.7485
  74   1.0000      -0.354694        -9.6517
  75   1.0000      -0.349801        -9.5186
  76   1.0000      -0.349328        -9.5057
  77   1.0000      -0.344872        -9.3844
  78   1.0000      -0.344468        -9.3735
  79   1.0000      -0.343811        -9.3556
  80   1.0000      -0.339368        -9.2347
  81   1.0000      -0.338768        -9.2183
  82   1.0000      -0.336306        -9.1513
  83   1.0000      -0.334263        -9.0958
  84   1.0000      -0.332758        -9.0548
  85   1.0000      -0.331625        -9.0240
  86   1.0000      -0.327679        -8.9166
  87   1.0000      -0.326147        -8.8749
  88   1.0000      -0.325523        -8.8579
  89   1.0000      -0.324011        -8.8168
  90   1.0000      -0.319683        -8.6990
  91   1.0000      -0.319595        -8.6966
  92   1.0000      -0.314928        -8.5696
  93   1.0000      -0.314116        -8.5475
  94   1.0000      -0.312933        -8.5154
  95   1.0000      -0.308408        -8.3922
  96   1.0000      -0.307868        -8.3775
  97   1.0000      -0.302897        -8.2422
  98   1.0000      -0.299373        -8.1464
  99   1.0000      -0.298050        -8.1104
 100   1.0000      -0.294165        -8.0046
 101   1.0000      -0.293921        -7.9980
 102   1.0000      -0.291176        -7.9233
 103   1.0000      -0.289599        -7.8804
 104   1.0000      -0.285244        -7.7619
 105   1.0000      -0.284113        -7.7311
 106   1.0000      -0.282492        -7.6870
 107   1.0000      -0.279984        -7.6188
 108   1.0000      -0.278953        -7.5907
 109   1.0000      -0.276892        -7.5346
 110   1.0000      -0.276288        -7.5182
 111   1.0000      -0.275762        -7.5039
 112   1.0000      -0.274677        -7.4743
 113   1.0000      -0.272532        -7.4160
 114   1.0000      -0.270454        -7.3594
 115   1.0000      -0.268567        -7.3081
 116   1.0000      -0.268342        -7.3020
 117   1.0000      -0.267283        -7.2731
 118   1.0000      -0.266310        -7.2467
 119   1.0000      -0.265575        -7.2267
 120   1.0000      -0.265247        -7.2177
 121   1.0000      -0.263330        -7.1656
 122   1.0000      -0.262970        -7.1558
 123   1.0000      -0.260119        -7.0782
 124   1.0000      -0.258241        -7.0271
 125   1.0000      -0.257782        -7.0146
 126   1.0000      -0.253844        -6.9074
 127   1.0000      -0.250518        -6.8170
 128   1.0000      -0.249836        -6.7984
 129   1.0000      -0.249726        -6.7954
 130   1.0000      -0.247523        -6.7354
 131   1.0000      -0.247214        -6.7270
 132   1.0000      -0.245790        -6.6883
 133   1.0000      -0.244402        -6.6505
 134   1.0000      -0.241898        -6.5824
 135   1.0000      -0.239792        -6.5251
 136   1.0000      -0.237353        -6.4587
 137   1.0000      -0.236952        -6.4478
 138   1.0000      -0.232955        -6.3390
 139   1.0000      -0.222231        -6.0472
 140   1.0000      -0.213073        -5.7980
 141   1.0000      -0.207823        -5.6551
 142   1.0000      -0.200276        -5.4498
 143   1.0000      -0.192554        -5.2397
 144   0.0000      -0.147451        -4.0123
 145   0.0000      -0.141663        -3.8548
 146   0.0000      -0.131195        -3.5700
 147   0.0000      -0.122926        -3.3450
 148   0.0000      -0.122560        -3.3350

MULLIKEN ATOMIC CHARGES AND SPIN POPULATIONS
--------------------------------------------
   0 Au:    0.458150   -0.056879
   1 Au:    0.335268   -0.028470
   2 Au:    0.468774   -0.052609
   3 Au:    0.468656   -0.051471
   4 Au:    0.498342   -0.027969
   5 Au:    0.413538   -0.060040
   6 Au:    0.414518   -0.059232
   7 Au:    0.374329   -0.044163
   8 Au:    0.095689   -0.066380
   9 Au:    0.480254   -0.016143
  10 Au:    0.079845   -0.067937
  11 Au:   -0.187931    0.010442
  12 Au:    0.384183   -0.044626
  13 Au:    0.340752   -0.027614
  14 Cr:   -4.624367    2.593091
Sum of atomic charges         :   -0.0000000

LOEWDIN ATOMIC CHARGES AND SPIN POPULATIONS
-------------------------------------------
   0 Au:    0.067181   -0.073930
   1 Au:    0.114003   -0.050416
   2 Au:    0.130439   -0.091639
   3 Au:    0.130343   -0.090996
   4 Au:    0.103446   -0.066559
   5 Au:    0.152859   -0.075338
   6 Au:    0.152874   -0.075334
   7 Au:    0.101163   -0.078892
   8 Au:   -0.006238   -0.061870
   9 Au:    0.142075   -0.024634
  10 Au:   -0.008517   -0.062162
  11 Au:   -0.050348   -0.015163
  12 Au:    0.101874   -0.079592
  13 Au:    0.115551   -0.050467
  14 Cr:   -1.246704    2.896992

  Mayer bond orders larger than 0.100000
B(  0-Au,  1-Au) :   0.1509 B(  0-Au,  2-Au) :   0.1858 B(  0-Au,  3-Au) :   0.1857
B(  0-Au, 11-Au) :   0.4454 B(  0-Au, 13-Au) :   0.1503 B(  0-Au, 14-Cr) :   0.4822
B(  1-Au,  2-Au) :   0.1465 B(  1-Au,  5-Au) :   0.1075 B(  1-Au,  7-Au) :   0.1236
B(  1-Au,  8-Au) :   0.2769 B(  1-Au, 11-Au) :   0.2134 B(  1-Au, 14-Cr) :   0.6881
B(  2-Au,  3-Au) :   0.2069 B(  2-Au,  6-Au) :   0.3162 B(  2-Au, 12-Au) :   0.1179
B(  2-Au, 14-Cr) :   0.6545 B(  3-Au,  5-Au) :   0.3154 B(  3-Au,  7-Au) :   0.1181
B(  3-Au, 13-Au) :   0.1461 B(  3-Au, 14-Cr) :   0.6550 B(  4-Au,  5-Au) :   0.2398
B(  4-Au,  6-Au) :   0.2408 B(  4-Au,  7-Au) :   0.2406 B(  4-Au, 12-Au) :   0.2394
B(  4-Au, 14-Cr) :   0.4236 B(  5-Au, 12-Au) :   0.1618 B(  5-Au, 14-Cr) :   0.7100
B(  6-Au,  7-Au) :   0.1600 B(  6-Au, 13-Au) :   0.1077 B(  6-Au, 14-Cr) :   0.7109
B(  7-Au,  8-Au) :   0.3066 B(  7-Au, 12-Au) :   0.1051 B(  7-Au, 14-Cr) :   0.6781
B(  8-Au,  9-Au) :   0.3375 B(  8-Au, 10-Au) :   0.2735 B(  8-Au, 11-Au) :   0.2181
B(  8-Au, 14-Cr) :   0.3402 B(  9-Au, 10-Au) :   0.3412 B(  9-Au, 11-Au) :   0.4030
B( 10-Au, 11-Au) :   0.2224 B( 10-Au, 12-Au) :   0.3066 B( 10-Au, 13-Au) :   0.2785
B( 10-Au, 14-Cr) :   0.3414 B( 11-Au, 13-Au) :   0.2105 B( 11-Au, 14-Cr) :   0.3591
B( 12-Au, 13-Au) :   0.1225 B( 12-Au, 14-Cr) :   0.6735 B( 13-Au, 14-Cr) :   0.6906

FINAL SINGLE POINT ENERGY     -2945.831342148528

DIPOLE MOMENT
-------------
                                X             Y             Z
Electronic contribution:    -29.79763       9.90088      17.75689
Nuclear contribution   :     29.81147      -9.94174     -17.80368
                        -----------------------------------------
Total Dipole Moment    :      0.01384      -0.04085      -0.04679
                        -----------------------------------------
Magnitude (a.u.)       :      0.06364
Magnitude (Debye)      :      0.16176

Rotational constants in cm-1:     0.001278     0.000891     0.000822
Rotational constants in MHz :    38.326100    26.721142    24.642903

                             ****ORCA TERMINATED NORMALLY****
TOTAL RUN TIME: 0 days 1 hours 18 minutes 24 seconds 211 msec
