                         Program Version 5.0.3 -  RELEASE  -
|  1> !R2SCAN def2-TZVP VERYSLOWCONV
|  2> !KDIIS
|  3> %scf
|  4>   AutoTRAHIter 200
|  5>   maxiter 400
|  6> end
|  7>
|  8> %pal nprocs 6 end
|  9>
| 10> *xyzfile 0 5 pbe.xyz
| 11>
| 12> $new_job
| 13>
| 14> !R2SCAN def2-TZVP VERYSLOWCONV
| 15> !KDIIS
| 16> %scf
| 17>   AutoTRAHIter 200
| 18>   maxiter 400
| 19> end
| 20>
| 21>
| 22> %pal nprocs 6 end
| 23>
| 24> *xyzfile 0 3 pbe.xyz
| 25>
| 26>
| 27>
| 28>
| 29>
| 30>                          ****END OF INPUT****
 Total Charge           Charge          ....    0
 Multiplicity           Mult            ....    5
 Number of Electrons    NEL             ....  290
FINAL SINGLE POINT ENERGY     -2946.303402769054

CARTESIAN COORDINATES (ANGSTROEM)
---------------------------------
  Au    10.221843   10.202972    8.580339
  Au     8.542639   10.534900    6.254388
  Au    11.368035   10.102008    6.035668
  Au    11.834850    8.008103    7.963459
  Au     9.224248    6.093926    4.354954
  Au    10.903809    5.830389    6.584368
  Au    10.271005    8.664520    3.977042
  Au     7.548820    8.264878    4.720997
  Au     6.043457    9.416806    6.608954
  Au     4.922993    9.514754    9.103219
  Au     6.506149    7.371197    8.482437
  Au     7.601929   10.036758    9.023078
  Au     8.071383    5.930460    6.863820
  Au     9.209865    7.534070    9.016068
  Cr     9.580311    8.110915    6.463563

 Multiplicity           Mult            ....    3
 Number of Electrons    NEL             ....  290
 Basis Dimension        Dim             ....  605

ORBITAL ENERGIES
----------------
                 SPIN UP ORBITALS
  NO   OCC          E(Eh)            E(eV)
   0   1.0000    -215.310070     -5858.8849
   1   1.0000     -24.612673      -669.7449
   2   1.0000     -20.881192      -568.2061
   3   1.0000     -20.879662      -568.1645
   4   1.0000     -20.876582      -568.0807
   5   1.0000      -4.122206      -112.1709
   6   1.0000      -4.122172      -112.1700
   7   1.0000      -4.121601      -112.1545
   8   1.0000      -4.121563      -112.1534
   9   1.0000      -4.116305      -112.0103
  10   1.0000      -4.116203      -112.0076
  11   1.0000      -4.115095      -111.9774
  12   1.0000      -4.112662      -111.9112
  13   1.0000      -4.112516      -111.9072
  14   1.0000      -4.112111      -111.8962
  15   1.0000      -4.112105      -111.8961
  16   1.0000      -4.110225      -111.8449
  17   1.0000      -4.110038      -111.8398
  18   1.0000      -4.106147      -111.7339
  19   1.0000      -2.925969       -79.6197
  20   1.0000      -2.311956       -62.9115
  21   1.0000      -2.311941       -62.9111
  22   1.0000      -2.311436       -62.8974
  23   1.0000      -2.311189       -62.8907
  24   1.0000      -2.309899       -62.8555
  25   1.0000      -2.309729       -62.8509
  26   1.0000      -2.308054       -62.8053
  27   1.0000      -2.308011       -62.8042
  28   1.0000      -2.305967       -62.7486
  29   1.0000      -2.305333       -62.7313
  30   1.0000      -2.305095       -62.7248
  31   1.0000      -2.304372       -62.7051
  32   1.0000      -2.304265       -62.7022
  33   1.0000      -2.304052       -62.6964
  34   1.0000      -2.302692       -62.6594
  35   1.0000      -2.302645       -62.6582
  36   1.0000      -2.302347       -62.6500
  37   1.0000      -2.302183       -62.6456
  38   1.0000      -2.301902       -62.6379
  39   1.0000      -2.301431       -62.6251
  40   1.0000      -2.301058       -62.6150
  41   1.0000      -2.299580       -62.5748
  42   1.0000      -2.299358       -62.5687
  43   1.0000      -2.298667       -62.5499
  44   1.0000      -2.298499       -62.5453
  45   1.0000      -2.298106       -62.5346
  46   1.0000      -2.297699       -62.5236
  47   1.0000      -2.297564       -62.5199
  48   1.0000      -2.296717       -62.4968
  49   1.0000      -2.296237       -62.4838
  50   1.0000      -2.296143       -62.4812
  51   1.0000      -2.296054       -62.4788
  52   1.0000      -2.295699       -62.4691
  53   1.0000      -2.295263       -62.4573
  54   1.0000      -2.293983       -62.4225
  55   1.0000      -2.293817       -62.4179
  56   1.0000      -2.293479       -62.4087
  57   1.0000      -2.293150       -62.3998
  58   1.0000      -2.292776       -62.3896
  59   1.0000      -2.292487       -62.3818
  60   1.0000      -2.289165       -62.2913
  61   1.0000      -2.288540       -62.2743
  62   1.0000      -1.873666       -50.9850
  63   1.0000      -1.873074       -50.9689
  64   1.0000      -1.870373       -50.8954
  65   1.0000      -0.428564       -11.6618
  66   1.0000      -0.398210       -10.8358
  67   1.0000      -0.388296       -10.5661
  68   1.0000      -0.385956       -10.5024
  69   1.0000      -0.380496       -10.3538
  70   1.0000      -0.375680       -10.2228
  71   1.0000      -0.373701       -10.1689
  72   1.0000      -0.371016       -10.0959
  73   1.0000      -0.367065        -9.9884
  74   1.0000      -0.364045        -9.9062
  75   1.0000      -0.361580        -9.8391
  76   1.0000      -0.359665        -9.7870
  77   1.0000      -0.353858        -9.6290
  78   1.0000      -0.352808        -9.6004
  79   1.0000      -0.352540        -9.5931
  80   1.0000      -0.349841        -9.5196
  81   1.0000      -0.348265        -9.4768
  82   1.0000      -0.346923        -9.4403
  83   1.0000      -0.344442        -9.3727
  84   1.0000      -0.340701        -9.2710
  85   1.0000      -0.340193        -9.2571
  86   1.0000      -0.336289        -9.1509
  87   1.0000      -0.335896        -9.1402
  88   1.0000      -0.334201        -9.0941
  89   1.0000      -0.332377        -9.0444
  90   1.0000      -0.328993        -8.9524
  91   1.0000      -0.327465        -8.9108
  92   1.0000      -0.324852        -8.8397
  93   1.0000      -0.322199        -8.7675
  94   1.0000      -0.321396        -8.7456
  95   1.0000      -0.317163        -8.6304
  96   1.0000      -0.316444        -8.6109
  97   1.0000      -0.314518        -8.5585
  98   1.0000      -0.306910        -8.3514
  99   1.0000      -0.306627        -8.3437
 100   1.0000      -0.302520        -8.2320
 101   1.0000      -0.302035        -8.2188
 102   1.0000      -0.301357        -8.2004
 103   1.0000      -0.297651        -8.0995
 104   1.0000      -0.293234        -7.9793
 105   1.0000      -0.291930        -7.9438
 106   1.0000      -0.290624        -7.9083
 107   1.0000      -0.288627        -7.8539
 108   1.0000      -0.285943        -7.7809
 109   1.0000      -0.284009        -7.7283
 110   1.0000      -0.283372        -7.7110
 111   1.0000      -0.282868        -7.6972
 112   1.0000      -0.280780        -7.6404
 113   1.0000      -0.279240        -7.5985
 114   1.0000      -0.277892        -7.5618
 115   1.0000      -0.276378        -7.5206
 116   1.0000      -0.276007        -7.5105
 117   1.0000      -0.275503        -7.4968
 118   1.0000      -0.274135        -7.4596
 119   1.0000      -0.272799        -7.4232
 120   1.0000      -0.272073        -7.4035
 121   1.0000      -0.271167        -7.3788
 122   1.0000      -0.269245        -7.3265
 123   1.0000      -0.267138        -7.2692
 124   1.0000      -0.264995        -7.2109
 125   1.0000      -0.264882        -7.2078
 126   1.0000      -0.260500        -7.0886
 127   1.0000      -0.256903        -6.9907
 128   1.0000      -0.256817        -6.9883
 129   1.0000      -0.255439        -6.9509
 130   1.0000      -0.254057        -6.9132
 131   1.0000      -0.253678        -6.9029
 132   1.0000      -0.251224        -6.8362
 133   1.0000      -0.248573        -6.7640
 134   1.0000      -0.247246        -6.7279
 135   1.0000      -0.246099        -6.6967
 136   1.0000      -0.243621        -6.6293
 137   1.0000      -0.243041        -6.6135
 138   1.0000      -0.241076        -6.5600
 139   1.0000      -0.238040        -6.4774
 140   1.0000      -0.231537        -6.3004
 141   1.0000      -0.223443        -6.0802
 142   1.0000      -0.222564        -6.0563
 143   1.0000      -0.217693        -5.9237
 144   1.0000      -0.216741        -5.8978
 145   1.0000      -0.197554        -5.3757
 146   0.0000      -0.180613        -4.9147
 147   0.0000      -0.168903        -4.5961
 148   0.0000      -0.168284        -4.5792
 149   0.0000      -0.132340        -3.6012
 150   0.0000      -0.118203        -3.2165

                 SPIN DOWN ORBITALS
  NO   OCC          E(Eh)            E(eV)
   0   1.0000    -215.309467     -5858.8685
   1   1.0000     -24.554018      -668.1488
   2   1.0000     -20.839246      -567.0647
   3   1.0000     -20.833469      -566.9075
   4   1.0000     -20.829176      -566.7907
   5   1.0000      -4.122182      -112.1703
   6   1.0000      -4.122139      -112.1691
   7   1.0000      -4.121707      -112.1573
   8   1.0000      -4.121670      -112.1564
   9   1.0000      -4.116376      -112.0123
  10   1.0000      -4.116272      -112.0095
  11   1.0000      -4.115283      -111.9826
  12   1.0000      -4.113026      -111.9211
  13   1.0000      -4.112884      -111.9173
  14   1.0000      -4.112213      -111.8990
  15   1.0000      -4.112198      -111.8986
  16   1.0000      -4.110645      -111.8563
  17   1.0000      -4.110076      -111.8409
  18   1.0000      -4.106689      -111.7487
  19   1.0000      -2.773404       -75.4682
  20   1.0000      -2.311623       -62.9025
  21   1.0000      -2.311493       -62.8989
  22   1.0000      -2.311455       -62.8979
  23   1.0000      -2.311344       -62.8949
  24   1.0000      -2.309807       -62.8530
  25   1.0000      -2.309650       -62.8488
  26   1.0000      -2.308096       -62.8065
  27   1.0000      -2.308046       -62.8051
  28   1.0000      -2.305942       -62.7479
  29   1.0000      -2.305173       -62.7270
  30   1.0000      -2.304846       -62.7180
  31   1.0000      -2.304487       -62.7083
  32   1.0000      -2.304098       -62.6977
  33   1.0000      -2.303992       -62.6948
  34   1.0000      -2.302542       -62.6554
  35   1.0000      -2.302524       -62.6549
  36   1.0000      -2.302518       -62.6547
  37   1.0000      -2.302132       -62.6442
  38   1.0000      -2.301862       -62.6369
  39   1.0000      -2.301309       -62.6218
  40   1.0000      -2.300918       -62.6112
  41   1.0000      -2.299829       -62.5815
  42   1.0000      -2.299519       -62.5731
  43   1.0000      -2.298915       -62.5566
  44   1.0000      -2.298549       -62.5467
  45   1.0000      -2.298087       -62.5341
  46   1.0000      -2.297775       -62.5256
  47   1.0000      -2.297612       -62.5212
  48   1.0000      -2.297170       -62.5092
  49   1.0000      -2.296711       -62.4967
  50   1.0000      -2.296561       -62.4926
  51   1.0000      -2.296114       -62.4804
  52   1.0000      -2.296036       -62.4783
  53   1.0000      -2.295326       -62.4590
  54   1.0000      -2.294196       -62.4282
  55   1.0000      -2.293833       -62.4184
  56   1.0000      -2.293790       -62.4172
  57   1.0000      -2.293639       -62.4131
  58   1.0000      -2.292627       -62.3855
  59   1.0000      -2.292316       -62.3771
  60   1.0000      -2.289945       -62.3126
  61   1.0000      -2.288925       -62.2848
  62   1.0000      -1.731932       -47.1283
  63   1.0000      -1.718013       -46.7495
  64   1.0000      -1.710054       -46.5329
  65   1.0000      -0.424143       -11.5415
  66   1.0000      -0.396437       -10.7876
  67   1.0000      -0.388971       -10.5844
  68   1.0000      -0.386940       -10.5292
  69   1.0000      -0.378309       -10.2943
  70   1.0000      -0.372580       -10.1384
  71   1.0000      -0.371520       -10.1096
  72   1.0000      -0.368700       -10.0328
  73   1.0000      -0.366582        -9.9752
  74   1.0000      -0.363323        -9.8865
  75   1.0000      -0.358617        -9.7585
  76   1.0000      -0.358257        -9.7487
  77   1.0000      -0.353882        -9.6296
  78   1.0000      -0.353645        -9.6232
  79   1.0000      -0.352943        -9.6041
  80   1.0000      -0.348493        -9.4830
  81   1.0000      -0.347801        -9.4641
  82   1.0000      -0.345339        -9.3971
  83   1.0000      -0.342859        -9.3297
  84   1.0000      -0.341678        -9.2975
  85   1.0000      -0.340693        -9.2707
  86   1.0000      -0.336987        -9.1699
  87   1.0000      -0.335035        -9.1168
  88   1.0000      -0.334521        -9.1028
  89   1.0000      -0.333285        -9.0691
  90   1.0000      -0.328829        -8.9479
  91   1.0000      -0.328615        -8.9421
  92   1.0000      -0.323636        -8.8066
  93   1.0000      -0.322859        -8.7854
  94   1.0000      -0.322127        -8.7655
  95   1.0000      -0.316967        -8.6251
  96   1.0000      -0.316351        -8.6084
  97   1.0000      -0.311204        -8.4683
  98   1.0000      -0.308003        -8.3812
  99   1.0000      -0.306796        -8.3483
 100   1.0000      -0.302568        -8.2333
 101   1.0000      -0.302279        -8.2254
 102   1.0000      -0.299448        -8.1484
 103   1.0000      -0.298115        -8.1121
 104   1.0000      -0.294122        -8.0035
 105   1.0000      -0.292539        -7.9604
 106   1.0000      -0.290935        -7.9167
 107   1.0000      -0.288478        -7.8499
 108   1.0000      -0.287435        -7.8215
 109   1.0000      -0.284907        -7.7527
 110   1.0000      -0.284566        -7.7434
 111   1.0000      -0.283701        -7.7199
 112   1.0000      -0.282947        -7.6994
 113   1.0000      -0.280666        -7.6373
 114   1.0000      -0.278774        -7.5858
 115   1.0000      -0.276904        -7.5350
 116   1.0000      -0.276634        -7.5276
 117   1.0000      -0.275322        -7.4919
 118   1.0000      -0.274376        -7.4661
 119   1.0000      -0.274000        -7.4559
 120   1.0000      -0.273829        -7.4513
 121   1.0000      -0.271452        -7.3866
 122   1.0000      -0.270874        -7.3709
 123   1.0000      -0.268289        -7.3005
 124   1.0000      -0.266092        -7.2407
 125   1.0000      -0.265817        -7.2332
 126   1.0000      -0.261695        -7.1211
 127   1.0000      -0.257844        -7.0163
 128   1.0000      -0.257552        -7.0083
 129   1.0000      -0.257326        -7.0022
 130   1.0000      -0.255021        -6.9395
 131   1.0000      -0.254604        -6.9281
 132   1.0000      -0.252832        -6.8799
 133   1.0000      -0.251153        -6.8342
 134   1.0000      -0.248871        -6.7721
 135   1.0000      -0.246832        -6.7166
 136   1.0000      -0.243883        -6.6364
 137   1.0000      -0.243802        -6.6342
 138   1.0000      -0.239411        -6.5147
 139   1.0000      -0.225338        -6.1318
 140   1.0000      -0.215994        -5.8775
 141   1.0000      -0.209612        -5.7038
 142   1.0000      -0.201116        -5.4726
 143   1.0000      -0.192705        -5.2438
 144   0.0000      -0.141672        -3.8551
 145   0.0000      -0.132967        -3.6182
 146   0.0000      -0.124256        -3.3812
 147   0.0000      -0.115442        -3.1413
 148   0.0000      -0.114286        -3.1099

MULLIKEN ATOMIC CHARGES AND SPIN POPULATIONS
--------------------------------------------
   0 Au:    0.400617   -0.082793
   1 Au:    0.306626   -0.054421
   2 Au:    0.420876   -0.082831
   3 Au:    0.420695   -0.081413
   4 Au:    0.446820   -0.042445
   5 Au:    0.368828   -0.098003
   6 Au:    0.369707   -0.096914
   7 Au:    0.325910   -0.075112
   8 Au:    0.092277   -0.078088
   9 Au:    0.445675   -0.019313
  10 Au:    0.077428   -0.079669
  11 Au:   -0.186621    0.019793
  12 Au:    0.335321   -0.075735
  13 Au:    0.310890   -0.053181
  14 Cr:   -4.135048    2.900124
Sum of atomic charges         :   -0.0000000

LOEWDIN ATOMIC CHARGES AND SPIN POPULATIONS
-------------------------------------------
   0 Au:    0.062937   -0.096104
   1 Au:    0.110168   -0.067526
   2 Au:    0.125154   -0.115050
   3 Au:    0.125041   -0.114362
   4 Au:    0.099666   -0.085587
   5 Au:    0.146031   -0.097020
   6 Au:    0.146091   -0.096919
   7 Au:    0.095768   -0.100173
   8 Au:   -0.005647   -0.071808
   9 Au:    0.140179   -0.028038
  10 Au:   -0.007912   -0.072180
  11 Au:   -0.053004   -0.017369
  12 Au:    0.096476   -0.100909
  13 Au:    0.111695   -0.067577
  14 Cr:   -1.192643    3.130622

  Mayer bond orders larger than 0.100000
B(  0-Au,  1-Au) :   0.1453 B(  0-Au,  2-Au) :   0.1749 B(  0-Au,  3-Au) :   0.1749
B(  0-Au, 11-Au) :   0.4560 B(  0-Au, 13-Au) :   0.1447 B(  0-Au, 14-Cr) :   0.4845
B(  1-Au,  2-Au) :   0.1391 B(  1-Au,  7-Au) :   0.1229 B(  1-Au,  8-Au) :   0.2693
B(  1-Au, 11-Au) :   0.1975 B(  1-Au, 14-Cr) :   0.6886 B(  2-Au,  3-Au) :   0.1971
B(  2-Au,  6-Au) :   0.3068 B(  2-Au, 14-Cr) :   0.6575 B(  3-Au,  5-Au) :   0.3059
B(  3-Au, 13-Au) :   0.1387 B(  3-Au, 14-Cr) :   0.6578 B(  4-Au,  5-Au) :   0.2307
B(  4-Au,  6-Au) :   0.2317 B(  4-Au,  7-Au) :   0.2342 B(  4-Au, 12-Au) :   0.2329
B(  4-Au, 14-Cr) :   0.4223 B(  5-Au, 12-Au) :   0.1509 B(  5-Au, 14-Cr) :   0.7124
B(  6-Au,  7-Au) :   0.1491 B(  6-Au, 14-Cr) :   0.7141 B(  7-Au,  8-Au) :   0.3100
B(  7-Au, 12-Au) :   0.1036 B(  7-Au, 14-Cr) :   0.6837 B(  8-Au,  9-Au) :   0.3293
B(  8-Au, 10-Au) :   0.2514 B(  8-Au, 11-Au) :   0.1900 B(  8-Au, 14-Cr) :   0.3217
B(  9-Au, 10-Au) :   0.3334 B(  9-Au, 11-Au) :   0.3933 B( 10-Au, 11-Au) :   0.1939
B( 10-Au, 12-Au) :   0.3104 B( 10-Au, 13-Au) :   0.2711 B( 10-Au, 14-Cr) :   0.3222
B( 11-Au, 13-Au) :   0.1948 B( 11-Au, 14-Cr) :   0.3314 B( 12-Au, 13-Au) :   0.1216
B( 12-Au, 14-Cr) :   0.6799 B( 13-Au, 14-Cr) :   0.6918

FINAL SINGLE POINT ENERGY     -2946.310821866738

DIPOLE MOMENT
-------------
                                X             Y             Z
Electronic contribution:    -29.81452       9.90238      17.76249
Nuclear contribution   :     29.81147      -9.94174     -17.80368
                        -----------------------------------------
Total Dipole Moment    :     -0.00305      -0.03936      -0.04119
                        -----------------------------------------
Magnitude (a.u.)       :      0.05705
Magnitude (Debye)      :      0.14501

Rotational constants in cm-1:     0.001278     0.000891     0.000822
Rotational constants in MHz :    38.326100    26.721142    24.642903

                             ****ORCA TERMINATED NORMALLY****
TOTAL RUN TIME: 0 days 0 hours 31 minutes 27 seconds 312 msec
