                         Program Version 5.0.3 -  RELEASE  -
|  1> !CASSCF def2-TZVP def2-TZVP/C
|  2> !MOREAD RIJCOSX
|  3> %maxcore 6000
|  4> %moinp "pbe.qro"
|  5> %pal nprocs 2 end
|  6>
|  7> %casscf
|  8>  mult 5,3
|  9>  bweight 1,1
| 10>  nroots 5,45
| 11>  nel 6
| 12>  norb 5
| 13> end
| 14>
| 15>
| 16> *xyzfile 0 5 pbe.xyz
| 17>
| 18>
| 19>                          ****END OF INPUT****

CARTESIAN COORDINATES (ANGSTROEM)
---------------------------------
  Au     7.735625   10.021001    6.320655
  Au     6.714205   10.099642    3.793133
  Au     5.353098    6.261140    5.126060
  Au     7.706315    7.684291    4.661576
  Au     4.758137    7.100000    7.725146
  Au     5.132316    8.972509    5.745763
  Au     5.770792    9.803221    8.356111
  Au     9.294783    5.924236    8.768414
  Au     7.710105    5.620544    6.480858
  Au     8.456922    7.759178   10.690639
  Au     9.569718    7.902554    6.759605
  Au     5.696273    7.735921   10.290891
  Au     8.689304    9.792140    8.876154
  Au     6.546088    5.334831    9.066909
  Fe     7.337272    7.678162    8.157562

 Total Charge           Charge          ....    0
 Multiplicity           Mult            ....    5
 Number of Electrons    NEL             ....  292
 Basis Dimension        Dim             ....  605

ORBITAL ENERGIES
----------------

  NO   OCC          E(Eh)            E(eV)
   0   2.0000    -261.398275     -7113.0087
   1   2.0000     -31.961092      -869.7055
   2   2.0000     -27.441343      -746.7169
   3   2.0000     -27.440901      -746.7049
   4   2.0000     -27.440882      -746.7044
   5   2.0000      -4.730353      -128.7195
   6   2.0000      -4.730288      -128.7177
   7   2.0000      -4.723680      -128.5379
   8   2.0000      -4.723668      -128.5375
   9   2.0000      -4.717974      -128.3826
  10   2.0000      -4.716037      -128.3299
  11   2.0000      -4.710693      -128.1845
  12   2.0000      -4.710578      -128.1813
  13   2.0000      -4.707335      -128.0931
  14   2.0000      -4.706435      -128.0686
  15   2.0000      -4.706341      -128.0661
  16   2.0000      -4.703912      -127.9999
  17   2.0000      -4.703585      -127.9911
  18   2.0000      -4.700117      -127.8967
  19   2.0000      -4.195225      -114.1579
  20   2.0000      -2.776285       -75.5466
  21   2.0000      -2.775919       -75.5366
  22   2.0000      -2.773795       -75.4788
  23   2.0000      -2.768435       -75.3329
  24   2.0000      -2.768235       -75.3275
  25   2.0000      -2.767332       -75.3029
  26   2.0000      -2.767290       -75.3018
  27   2.0000      -2.764913       -75.2371
  28   2.0000      -2.764639       -75.2297
  29   2.0000      -2.762659       -75.1758
  30   2.0000      -2.762133       -75.1615
  31   2.0000      -2.759980       -75.1029
  32   2.0000      -2.759941       -75.1018
  33   2.0000      -2.759102       -75.0790
  34   2.0000      -2.758529       -75.0634
  35   2.0000      -2.756388       -75.0051
  36   2.0000      -2.754601       -74.9565
  37   2.0000      -2.750678       -74.8497
  38   2.0000      -2.750477       -74.8443
  39   2.0000      -2.750469       -74.8441
  40   2.0000      -2.749532       -74.8186
  41   2.0000      -2.748618       -74.7937
  42   2.0000      -2.748479       -74.7899
  43   2.0000      -2.745747       -74.7156
  44   2.0000      -2.745711       -74.7146
  45   2.0000      -2.745586       -74.7112
  46   2.0000      -2.745342       -74.7046
  47   2.0000      -2.744995       -74.6951
  48   2.0000      -2.744177       -74.6729
  49   2.0000      -2.743653       -74.6586
  50   2.0000      -2.743029       -74.6416
  51   2.0000      -2.742065       -74.6154
  52   2.0000      -2.741332       -74.5954
  53   2.0000      -2.740218       -74.5651
  54   2.0000      -2.740100       -74.5619
  55   2.0000      -2.739915       -74.5569
  56   2.0000      -2.739731       -74.5519
  57   2.0000      -2.739238       -74.5384
  58   2.0000      -2.737504       -74.4913
  59   2.0000      -2.737258       -74.4846
  60   2.0000      -2.737190       -74.4827
  61   2.0000      -2.736642       -74.4678
  62   2.0000      -2.735985       -74.4499
  63   2.0000      -2.735400       -74.4340
  64   2.0000      -2.733869       -74.3923
  65   2.0000      -0.591272       -16.0893
  66   2.0000      -0.561803       -15.2874
  67   2.0000      -0.559930       -15.2365
  68   2.0000      -0.557560       -15.1720
  69   2.0000      -0.551034       -14.9944
  70   2.0000      -0.550740       -14.9864
  71   2.0000      -0.549041       -14.9402
  72   2.0000      -0.548009       -14.9121
  73   2.0000      -0.546707       -14.8767
  74   2.0000      -0.544814       -14.8252
  75   2.0000      -0.543962       -14.8020
  76   2.0000      -0.541144       -14.7253
  77   2.0000      -0.539808       -14.6889
  78   2.0000      -0.538473       -14.6526
  79   2.0000      -0.533498       -14.5172
  80   2.0000      -0.533387       -14.5142
  81   2.0000      -0.532005       -14.4766
  82   2.0000      -0.526118       -14.3164
  83   2.0000      -0.523757       -14.2522
  84   2.0000      -0.519338       -14.1319
  85   2.0000      -0.518987       -14.1224
  86   2.0000      -0.517609       -14.0849
  87   2.0000      -0.512599       -13.9485
  88   2.0000      -0.512051       -13.9336
  89   2.0000      -0.509941       -13.8762
  90   2.0000      -0.508481       -13.8365
  91   2.0000      -0.505748       -13.7621
  92   2.0000      -0.500225       -13.6118
  93   2.0000      -0.499180       -13.5834
  94   2.0000      -0.495258       -13.4767
  95   2.0000      -0.494661       -13.4604
  96   2.0000      -0.488455       -13.2915
  97   2.0000      -0.486016       -13.2252
  98   2.0000      -0.483870       -13.1668
  99   2.0000      -0.479464       -13.0469
 100   2.0000      -0.477969       -13.0062
 101   2.0000      -0.476964       -12.9789
 102   2.0000      -0.476091       -12.9551
 103   2.0000      -0.473263       -12.8782
 104   2.0000      -0.468920       -12.7600
 105   2.0000      -0.468121       -12.7382
 106   2.0000      -0.464269       -12.6334
 107   2.0000      -0.462371       -12.5817
 108   2.0000      -0.459607       -12.5065
 109   2.0000      -0.458363       -12.4727
 110   2.0000      -0.457896       -12.4600
 111   2.0000      -0.453049       -12.3281
 112   2.0000      -0.450435       -12.2569
 113   2.0000      -0.447397       -12.1743
 114   2.0000      -0.446571       -12.1518
 115   2.0000      -0.444794       -12.1035
 116   2.0000      -0.443772       -12.0756
 117   2.0000      -0.439036       -11.9468
 118   2.0000      -0.437995       -11.9185
 119   2.0000      -0.437760       -11.9121
 120   2.0000      -0.436003       -11.8643
 121   2.0000      -0.435791       -11.8585
 122   2.0000      -0.434560       -11.8250
 123   2.0000      -0.431417       -11.7395
 124   2.0000      -0.429664       -11.6918
 125   2.0000      -0.427912       -11.6441
 126   2.0000      -0.424651       -11.5553
 127   2.0000      -0.421475       -11.4689
 128   2.0000      -0.419711       -11.4209
 129   2.0000      -0.418575       -11.3900
 130   2.0000      -0.418112       -11.3774
 131   2.0000      -0.415215       -11.2986
 132   2.0000      -0.406684       -11.0664
 133   2.0000      -0.405150       -11.0247
 134   2.0000      -0.398837       -10.8529
 135   2.0000      -0.389800       -10.6070
 136   2.0000      -0.378861       -10.3093
 137   2.0000      -0.343390        -9.3441
 138   2.0000      -0.343108        -9.3364
 139   2.0000      -0.265221        -7.2170
 140   2.0000      -0.244757        -6.6602
 141   2.0000      -0.229766        -6.2523
 142   2.0000      -0.220599        -6.0028
 143   1.2000      -0.271981        -7.4010
 144   1.2000      -0.269146        -7.3238
 145   1.2000      -0.276321        -7.5191
 146   1.2000      -0.262263        -7.1366
 147   1.2000      -0.277283        -7.5453
 148   0.0000      -0.051891        -1.4120
 149   0.0000      -0.020947        -0.5700
 150   0.0000      -0.008767        -0.2386
 151   0.0000       0.004398         0.1197
 152   0.0000       0.008228         0.2239

MULLIKEN ATOMIC CHARGES AND SPIN DENSITIES
------------------------------------------
   0 Au:   -0.610831    0.006489
   1 Au:    0.656386    0.001047
   2 Au:    0.296557    0.004285
   3 Au:   -0.247412    0.005167
   4 Au:    0.108284    0.006691
   5 Au:   -0.247884    0.005164
   6 Au:    0.325338    0.008592
   7 Au:    0.219401    0.007873
   8 Au:    0.104652    0.006651
   9 Au:    0.318814    0.006054
  10 Au:    0.324280    0.008701
  11 Au:    0.220397    0.007999
  12 Au:    0.380750    0.010268
  13 Au:    0.201329    0.010086
  14 Fe:   -2.050060    2.904933
Sum of atomic charges       :    0.0000000

LOEWDIN ATOMIC CHARGES AND SPIN DENSITIES
-----------------------------------------
   0 Au:   -0.140822    0.007117
   1 Au:    0.198684    0.002141
   2 Au:    0.093963    0.004417
   3 Au:   -0.120924    0.005115
   4 Au:   -0.016844    0.010396
   5 Au:   -0.121060    0.005117
   6 Au:    0.069041    0.011354
   7 Au:    0.042756    0.009892
   8 Au:   -0.017613    0.010343
   9 Au:    0.040516    0.008385
  10 Au:    0.069519    0.011457
  11 Au:    0.043384    0.010017
  12 Au:    0.073369    0.013472
  13 Au:    0.025896    0.011705
  14 Fe:   -0.239866    2.879074

  Mayer bond orders larger than 0.100000
B(  0-Au,  1-Au) :   0.3570 B(  0-Au,  3-Au) :   0.3383 B(  0-Au,  5-Au) :   0.3374
B(  0-Au,  6-Au) :   0.1051 B(  0-Au, 10-Au) :   0.1031 B(  0-Au, 12-Au) :   0.4565
B(  0-Au, 14-Fe) :   0.4004 B(  1-Au,  3-Au) :   0.1861 B(  1-Au,  5-Au) :   0.1854
B(  2-Au,  3-Au) :   0.1652 B(  2-Au,  4-Au) :   0.2736 B(  2-Au,  5-Au) :   0.1653
B(  2-Au,  8-Au) :   0.2771 B(  2-Au, 14-Fe) :   0.1214 B(  3-Au,  5-Au) :   0.2400
B(  3-Au,  8-Au) :   0.3032 B(  3-Au, 10-Au) :   0.3151 B(  3-Au, 14-Fe) :   0.2205
B(  4-Au,  5-Au) :   0.3044 B(  4-Au,  6-Au) :   0.1864 B(  4-Au,  8-Au) :   0.1763
B(  4-Au, 11-Au) :   0.2064 B(  4-Au, 13-Au) :   0.1707 B(  4-Au, 14-Fe) :   0.3823
B(  5-Au,  6-Au) :   0.3147 B(  5-Au, 14-Fe) :   0.2205 B(  6-Au, 11-Au) :   0.1509
B(  6-Au, 14-Fe) :   0.4000 B(  7-Au,  8-Au) :   0.2081 B(  7-Au,  9-Au) :   0.1740
B(  7-Au, 10-Au) :   0.1522 B(  7-Au, 13-Au) :   0.1187 B(  7-Au, 14-Fe) :   0.4192
B(  8-Au, 10-Au) :   0.1848 B(  8-Au, 13-Au) :   0.1720 B(  8-Au, 14-Fe) :   0.3823
B(  9-Au, 11-Au) :   0.1723 B(  9-Au, 12-Au) :   0.2041 B(  9-Au, 14-Fe) :   0.3731
B( 10-Au, 14-Fe) :   0.4019 B( 11-Au, 13-Au) :   0.1184 B( 11-Au, 14-Fe) :   0.4223
B( 12-Au, 14-Fe) :   0.3862 B( 13-Au, 14-Fe) :   0.4993

FINAL SINGLE POINT ENERGY     -3149.724991441140

DIPOLE MOMENT
-------------
                                X             Y             Z
Electronic contribution:     -9.69160       7.05974     -31.48715
Nuclear contribution   :      9.78502      -6.86384      31.48100
                        -----------------------------------------
Total Dipole Moment    :      0.09342       0.19589      -0.00614
                        -----------------------------------------
Magnitude (a.u.)       :      0.21712
Magnitude (Debye)      :      0.55187

Rotational constants in cm-1:     0.001321     0.000915     0.000880
Rotational constants in MHz :    39.592212    27.432360    26.374260

                             ****ORCA TERMINATED NORMALLY****
TOTAL RUN TIME: 0 days 1 hours 30 minutes 47 seconds 161 msec
