                         Program Version 5.0.3 -  RELEASE  -
|  1> !SC-NEVPT2 def2-TZVP def2-TZVP/C
|  2> !MOREAD RIJCOSX def2/J
|  3> %maxcore 4000
|  4> %moinp "casscf.gbw"
|  5> %pal nprocs 6 end
|  6>
|  7> %casscf
|  8>  mult 5,3
|  9>  bweight 1,1
| 10>  nroots 5,45
| 11>  nel 6
| 12>  norb 5
| 13>  ptsettings
| 14>   d4tpre 1e-14 # default = 1e-10
| 15>   d3tpre 1e-14
| 16>  end
| 17>  rel
| 18>    dosoc true
| 19>    gtensor true
| 20>  end
| 21> end
| 22>
| 23>
| 24> *xyzfile 0 5 pbe.xyz
| 25>
| 26>
| 27>                          ****END OF INPUT****

CARTESIAN COORDINATES (ANGSTROEM)
---------------------------------
  Au     9.558587    9.743912   10.121544
  Au    12.260167    9.778829    9.441232
  Au     9.169736    7.138918   11.398466
  Au    11.565668    8.390346   11.847586
  Au     7.058864    5.889152   10.039333
  Au     7.035713    8.758753   10.178539
  Au     6.329171    7.273416    7.794180
  Au    10.467896    9.288099    7.432794
  Au    10.412217    6.426545    6.922863
  Au     8.311625    8.132818    6.167306
  Au    11.443480    7.113897    9.416072
  Au     9.573938    5.061843    9.258370
  Fe     8.829625    7.563444    8.716458

 Total Charge           Charge          ....    0
 Multiplicity           Mult            ....    5
 Number of Electrons    NEL             ....  254
 Basis Dimension        Dim             ....  525

ORBITAL ENERGIES
----------------

  NO   OCC          E(Eh)            E(eV)
   0   2.0000    -261.394234     -7112.8987
   1   2.0000     -31.957558      -869.6094
   2   2.0000     -27.437755      -746.6193
   3   2.0000     -27.437340      -746.6080
   4   2.0000     -27.437163      -746.6032
   5   2.0000      -4.728645      -128.6730
   6   2.0000      -4.726142      -128.6049
   7   2.0000      -4.725713      -128.5932
   8   2.0000      -4.724763      -128.5673
   9   2.0000      -4.714733      -128.2944
  10   2.0000      -4.712335      -128.2292
  11   2.0000      -4.712251      -128.2269
  12   2.0000      -4.709356      -128.1481
  13   2.0000      -4.708855      -128.1345
  14   2.0000      -4.708315      -128.1198
  15   2.0000      -4.701157      -127.9250
  16   2.0000      -4.700022      -127.8941
  17   2.0000      -4.191655      -114.0607
  18   2.0000      -2.773934       -75.4826
  19   2.0000      -2.771438       -75.4147
  20   2.0000      -2.771298       -75.4108
  21   2.0000      -2.767765       -75.3147
  22   2.0000      -2.765934       -75.2649
  23   2.0000      -2.764955       -75.2383
  24   2.0000      -2.764122       -75.2156
  25   2.0000      -2.763309       -75.1935
  26   2.0000      -2.763034       -75.1860
  27   2.0000      -2.761830       -75.1532
  28   2.0000      -2.761131       -75.1342
  29   2.0000      -2.760295       -75.1115
  30   2.0000      -2.759493       -75.0896
  31   2.0000      -2.758988       -75.0759
  32   2.0000      -2.758836       -75.0717
  33   2.0000      -2.753164       -74.9174
  34   2.0000      -2.751519       -74.8726
  35   2.0000      -2.750835       -74.8540
  36   2.0000      -2.750315       -74.8399
  37   2.0000      -2.748623       -74.7938
  38   2.0000      -2.747573       -74.7653
  39   2.0000      -2.747496       -74.7632
  40   2.0000      -2.746199       -74.7279
  41   2.0000      -2.746145       -74.7264
  42   2.0000      -2.745579       -74.7110
  43   2.0000      -2.745047       -74.6965
  44   2.0000      -2.744379       -74.6784
  45   2.0000      -2.744320       -74.6767
  46   2.0000      -2.743568       -74.6563
  47   2.0000      -2.743012       -74.6412
  48   2.0000      -2.742423       -74.6251
  49   2.0000      -2.741507       -74.6002
  50   2.0000      -2.740502       -74.5729
  51   2.0000      -2.737844       -74.5005
  52   2.0000      -2.736469       -74.4631
  53   2.0000      -2.735536       -74.4377
  54   2.0000      -2.734927       -74.4211
  55   2.0000      -2.733403       -74.3797
  56   2.0000      -2.731585       -74.3302
  57   2.0000      -0.590645       -16.0723
  58   2.0000      -0.565859       -15.3978
  59   2.0000      -0.560381       -15.2487
  60   2.0000      -0.552210       -15.0264
  61   2.0000      -0.551333       -15.0025
  62   2.0000      -0.550665       -14.9843
  63   2.0000      -0.547990       -14.9116
  64   2.0000      -0.544502       -14.8166
  65   2.0000      -0.542882       -14.7726
  66   2.0000      -0.541214       -14.7272
  67   2.0000      -0.538078       -14.6418
  68   2.0000      -0.536870       -14.6090
  69   2.0000      -0.532495       -14.4899
  70   2.0000      -0.529783       -14.4161
  71   2.0000      -0.527627       -14.3575
  72   2.0000      -0.523786       -14.2529
  73   2.0000      -0.519414       -14.1340
  74   2.0000      -0.518315       -14.1041
  75   2.0000      -0.514560       -14.0019
  76   2.0000      -0.513123       -13.9628
  77   2.0000      -0.510624       -13.8948
  78   2.0000      -0.509368       -13.8606
  79   2.0000      -0.505926       -13.7669
  80   2.0000      -0.500779       -13.6269
  81   2.0000      -0.497503       -13.5378
  82   2.0000      -0.493735       -13.4352
  83   2.0000      -0.491832       -13.3834
  84   2.0000      -0.485287       -13.2053
  85   2.0000      -0.482549       -13.1308
  86   2.0000      -0.481510       -13.1026
  87   2.0000      -0.476375       -12.9628
  88   2.0000      -0.474410       -12.9094
  89   2.0000      -0.467893       -12.7320
  90   2.0000      -0.463575       -12.6145
  91   2.0000      -0.463167       -12.6034
  92   2.0000      -0.461025       -12.5451
  93   2.0000      -0.459760       -12.5107
  94   2.0000      -0.458586       -12.4788
  95   2.0000      -0.457391       -12.4462
  96   2.0000      -0.454712       -12.3734
  97   2.0000      -0.454094       -12.3565
  98   2.0000      -0.453568       -12.3422
  99   2.0000      -0.450310       -12.2535
 100   2.0000      -0.449883       -12.2419
 101   2.0000      -0.445947       -12.1348
 102   2.0000      -0.444350       -12.0914
 103   2.0000      -0.442351       -12.0370
 104   2.0000      -0.441859       -12.0236
 105   2.0000      -0.438382       -11.9290
 106   2.0000      -0.437587       -11.9074
 107   2.0000      -0.435944       -11.8626
 108   2.0000      -0.433674       -11.8009
 109   2.0000      -0.430413       -11.7121
 110   2.0000      -0.426629       -11.6092
 111   2.0000      -0.422706       -11.5024
 112   2.0000      -0.420109       -11.4317
 113   2.0000      -0.413414       -11.2496
 114   2.0000      -0.411771       -11.2048
 115   2.0000      -0.407949       -11.1008
 116   2.0000      -0.405106       -11.0235
 117   2.0000      -0.396744       -10.7959
 118   2.0000      -0.369029       -10.0418
 119   2.0000      -0.346686        -9.4338
 120   2.0000      -0.320453        -8.7200
 121   2.0000      -0.245527        -6.6811
 122   2.0000      -0.235651        -6.4124
 123   2.0000      -0.219080        -5.9615
 124   1.2000      -0.271827        -7.3968
 125   1.2000      -0.268289        -7.3005
 126   1.2000      -0.259948        -7.0735
 127   1.2000      -0.271607        -7.3908
 128   1.2000      -0.268840        -7.3155
 129   0.0000      -0.037509        -1.0207
 130   0.0000      -0.028436        -0.7738
 131   0.0000      -0.007484        -0.2037
 132   0.0000       0.003706         0.1008
 133   0.0000       0.006813         0.1854

MULLIKEN ATOMIC CHARGES AND SPIN DENSITIES
------------------------------------------
   0 Au:   -0.002783    0.006725
   1 Au:    0.387816    0.003487
   2 Au:   -0.200442    0.009153
   3 Au:    0.327640    0.003492
   4 Au:    0.234782    0.007871
   5 Au:    0.319451    0.009346
   6 Au:    0.129007    0.008656
   7 Au:   -0.081936    0.009561
   8 Au:    0.427464    0.007656
   9 Au:    0.193119    0.009975
  10 Au:   -0.404766    0.008955
  11 Au:    0.462820    0.007095
  12 Fe:   -1.792172    2.908029
Sum of atomic charges       :    0.0000000

LOEWDIN ATOMIC CHARGES AND SPIN DENSITIES
-----------------------------------------
   0 Au:   -0.029119    0.009839
   1 Au:    0.091288    0.004205
   2 Au:   -0.089925    0.010851
   3 Au:    0.093282    0.004034
   4 Au:   -0.001880    0.010138
   5 Au:    0.063619    0.011647
   6 Au:    0.017917    0.011166
   7 Au:   -0.043676    0.012265
   8 Au:    0.109745    0.010604
   9 Au:    0.046719    0.012435
  10 Au:   -0.135109    0.010968
  11 Au:    0.104524    0.010506
  12 Fe:   -0.227385    2.881341

  Mayer bond orders larger than 0.100000
B(  0-Au,  1-Au) :   0.2519 B(  0-Au,  2-Au) :   0.1750 B(  0-Au,  3-Au) :   0.1255
B(  0-Au,  5-Au) :   0.3947 B(  0-Au,  7-Au) :   0.2017 B(  0-Au, 10-Au) :   0.1977
B(  0-Au, 12-Fe) :   0.3670 B(  1-Au,  3-Au) :   0.1039 B(  1-Au,  7-Au) :   0.3724
B(  1-Au, 10-Au) :   0.2545 B(  2-Au,  3-Au) :   0.3865 B(  2-Au,  4-Au) :   0.3330
B(  2-Au, 10-Au) :   0.1882 B(  2-Au, 11-Au) :   0.1335 B(  2-Au, 12-Fe) :   0.4965
B(  3-Au, 10-Au) :   0.3718 B(  4-Au,  6-Au) :   0.1755 B(  4-Au, 11-Au) :   0.2621
B(  4-Au, 12-Fe) :   0.3968 B(  5-Au,  6-Au) :   0.1707 B(  5-Au, 12-Fe) :   0.4596
B(  6-Au,  9-Au) :   0.1374 B(  6-Au, 12-Fe) :   0.4623 B(  7-Au,  9-Au) :   0.3353
B(  7-Au, 12-Fe) :   0.4488 B(  8-Au,  9-Au) :   0.1316 B(  8-Au, 10-Au) :   0.3631
B(  8-Au, 11-Au) :   0.1623 B(  8-Au, 12-Fe) :   0.4237 B(  9-Au, 12-Fe) :   0.4252
B( 10-Au, 11-Au) :   0.2453 B( 10-Au, 12-Fe) :   0.4529 B( 11-Au, 12-Fe) :   0.2896

FINAL SINGLE POINT ENERGY     -2886.135966631155

DIPOLE MOMENT
-------------
                                X             Y             Z
Electronic contribution:     23.18033       7.07633      16.99823
Nuclear contribution   :    -22.93180      -7.08798     -17.18971
                        -----------------------------------------
Total Dipole Moment    :      0.24852      -0.01164      -0.19148
                        -----------------------------------------
Magnitude (a.u.)       :      0.31395
Magnitude (Debye)      :      0.79800

Rotational constants in cm-1:     0.001625     0.001240     0.001077
Rotational constants in MHz :    48.708124    37.176114    32.297467

                             ****ORCA TERMINATED NORMALLY****
TOTAL RUN TIME: 0 days 2 hours 22 minutes 17 seconds 279 msec
