                         Program Version 5.0.3 -  RELEASE  -
|  1> !CASSCF def2-TZVP def2-TZVP/C
|  2> !MOREAD RIJCOSX
|  3> %maxcore 6000
|  4> %moinp "pbe.qro"
|  5> %pal nprocs 2 end
|  6>
|  7> %casscf
|  8>  mult 5,3
|  9>  bweight 1,1
| 10>  nroots 5,45
| 11>  nel 6
| 12>  norb 5
| 13> end
| 14>
| 15>
| 16> *xyzfile 0 5 pbe.xyz
| 17>
| 18>
| 19>                          ****END OF INPUT****

CARTESIAN COORDINATES (ANGSTROEM)
---------------------------------
  Au     9.513202    6.507478    7.899486
  Au     7.728489    7.975505    9.574165
  Au    10.688125    8.274220    5.987570
  Au     7.877213   10.802665    8.853980
  Au     5.664341    9.126354    8.116392
  Au     6.601377    6.527542    7.390822
  Au    10.183516    9.091951    8.908622
  Au     9.642794   11.148453    6.619514
  Au     8.476865    6.762636    5.253573
  Au     4.420063   10.303679    5.954931
  Au     6.974726   11.164994    6.151823
  Au    12.100119   10.250593    7.295651
  Au     6.169039    8.306234    5.197828
  Au     8.638632    9.565747    4.445648
  Cr     8.182466    8.803935    7.024599

 Total Charge           Charge          ....    0
 Multiplicity           Mult            ....    5
 Number of Electrons    NEL             ....  290
 Basis Dimension        Dim             ....  605

ORBITAL ENERGIES
----------------

  NO   OCC          E(Eh)            E(eV)
   0   2.0000    -220.553003     -6001.5523
   1   2.0000     -26.399256      -718.3603
   2   2.0000     -22.335239      -607.7728
   3   2.0000     -22.329220      -607.6090
   4   2.0000     -22.319381      -607.3412
   5   2.0000      -4.721556      -128.4801
   6   2.0000      -4.721500      -128.4785
   7   2.0000      -4.720817      -128.4600
   8   2.0000      -4.720739      -128.4578
   9   2.0000      -4.715005      -128.3018
  10   2.0000      -4.714571      -128.2900
  11   2.0000      -4.707744      -128.1042
  12   2.0000      -4.707538      -128.0986
  13   2.0000      -4.707532      -128.0984
  14   2.0000      -4.707449      -128.0962
  15   2.0000      -4.705360      -128.0394
  16   2.0000      -4.705063      -128.0313
  17   2.0000      -4.699602      -127.8827
  18   2.0000      -4.699051      -127.8677
  19   2.0000      -3.448665       -93.8430
  20   2.0000      -2.761868       -75.1543
  21   2.0000      -2.761792       -75.1522
  22   2.0000      -2.760610       -75.1200
  23   2.0000      -2.760465       -75.1161
  24   2.0000      -2.758727       -75.0688
  25   2.0000      -2.758541       -75.0637
  26   2.0000      -2.757439       -75.0337
  27   2.0000      -2.757311       -75.0303
  28   2.0000      -2.756726       -75.0143
  29   2.0000      -2.756633       -75.0118
  30   2.0000      -2.756509       -75.0084
  31   2.0000      -2.755987       -74.9942
  32   2.0000      -2.754930       -74.9655
  33   2.0000      -2.750097       -74.8339
  34   2.0000      -2.749851       -74.8273
  35   2.0000      -2.749054       -74.8056
  36   2.0000      -2.748641       -74.7943
  37   2.0000      -2.748247       -74.7836
  38   2.0000      -2.745858       -74.7186
  39   2.0000      -2.745416       -74.7066
  40   2.0000      -2.745010       -74.6955
  41   2.0000      -2.744414       -74.6793
  42   2.0000      -2.743785       -74.6622
  43   2.0000      -2.743549       -74.6558
  44   2.0000      -2.742939       -74.6392
  45   2.0000      -2.742658       -74.6315
  46   2.0000      -2.742461       -74.6262
  47   2.0000      -2.742199       -74.6190
  48   2.0000      -2.741964       -74.6126
  49   2.0000      -2.741308       -74.5948
  50   2.0000      -2.741092       -74.5889
  51   2.0000      -2.740759       -74.5799
  52   2.0000      -2.739283       -74.5397
  53   2.0000      -2.739101       -74.5347
  54   2.0000      -2.739038       -74.5330
  55   2.0000      -2.738037       -74.5058
  56   2.0000      -2.735664       -74.4412
  57   2.0000      -2.735136       -74.4268
  58   2.0000      -2.733464       -74.3813
  59   2.0000      -2.732987       -74.3684
  60   2.0000      -2.732888       -74.3657
  61   2.0000      -2.732375       -74.3517
  62   2.0000      -2.213006       -60.2190
  63   2.0000      -2.207202       -60.0610
  64   2.0000      -2.200386       -59.8755
  65   2.0000      -0.574795       -15.6410
  66   2.0000      -0.556690       -15.1483
  67   2.0000      -0.549745       -14.9593
  68   2.0000      -0.549581       -14.9549
  69   2.0000      -0.548487       -14.9251
  70   2.0000      -0.546014       -14.8578
  71   2.0000      -0.544660       -14.8210
  72   2.0000      -0.544605       -14.8195
  73   2.0000      -0.543794       -14.7974
  74   2.0000      -0.537909       -14.6372
  75   2.0000      -0.537403       -14.6235
  76   2.0000      -0.535018       -14.5586
  77   2.0000      -0.534336       -14.5400
  78   2.0000      -0.534052       -14.5323
  79   2.0000      -0.533795       -14.5253
  80   2.0000      -0.533079       -14.5058
  81   2.0000      -0.530892       -14.4463
  82   2.0000      -0.529127       -14.3983
  83   2.0000      -0.528004       -14.3677
  84   2.0000      -0.521233       -14.1835
  85   2.0000      -0.519952       -14.1486
  86   2.0000      -0.517418       -14.0796
  87   2.0000      -0.513127       -13.9629
  88   2.0000      -0.509890       -13.8748
  89   2.0000      -0.509001       -13.8506
  90   2.0000      -0.501137       -13.6366
  91   2.0000      -0.500093       -13.6082
  92   2.0000      -0.498143       -13.5552
  93   2.0000      -0.497380       -13.5344
  94   2.0000      -0.496565       -13.5122
  95   2.0000      -0.494391       -13.4531
  96   2.0000      -0.485936       -13.2230
  97   2.0000      -0.485488       -13.2108
  98   2.0000      -0.484445       -13.1824
  99   2.0000      -0.480467       -13.0742
 100   2.0000      -0.476936       -12.9781
 101   2.0000      -0.470419       -12.8007
 102   2.0000      -0.464382       -12.6365
 103   2.0000      -0.462635       -12.5889
 104   2.0000      -0.458479       -12.4758
 105   2.0000      -0.457957       -12.4616
 106   2.0000      -0.452446       -12.3117
 107   2.0000      -0.451697       -12.2913
 108   2.0000      -0.450840       -12.2680
 109   2.0000      -0.450619       -12.2620
 110   2.0000      -0.448724       -12.2104
 111   2.0000      -0.448427       -12.2023
 112   2.0000      -0.447360       -12.1733
 113   2.0000      -0.447097       -12.1661
 114   2.0000      -0.446070       -12.1382
 115   2.0000      -0.442062       -12.0291
 116   2.0000      -0.440157       -11.9773
 117   2.0000      -0.438904       -11.9432
 118   2.0000      -0.437787       -11.9128
 119   2.0000      -0.435509       -11.8508
 120   2.0000      -0.434893       -11.8340
 121   2.0000      -0.433551       -11.7975
 122   2.0000      -0.433246       -11.7892
 123   2.0000      -0.431941       -11.7537
 124   2.0000      -0.428443       -11.6585
 125   2.0000      -0.427096       -11.6219
 126   2.0000      -0.425709       -11.5841
 127   2.0000      -0.424460       -11.5501
 128   2.0000      -0.420562       -11.4441
 129   2.0000      -0.420308       -11.4371
 130   2.0000      -0.416148       -11.3240
 131   2.0000      -0.415829       -11.3153
 132   2.0000      -0.413694       -11.2572
 133   2.0000      -0.399749       -10.8777
 134   2.0000      -0.393625       -10.7111
 135   2.0000      -0.386978       -10.5302
 136   2.0000      -0.370991       -10.0952
 137   2.0000      -0.343952        -9.3594
 138   2.0000      -0.337084        -9.1725
 139   2.0000      -0.265756        -7.2316
 140   2.0000      -0.238601        -6.4927
 141   2.0000      -0.213400        -5.8069
 142   1.2000      -0.129656        -3.5281
 143   1.2000      -0.140569        -3.8251
 144   1.2000      -0.097203        -2.6450
 145   1.2000      -0.161916        -4.4060
 146   1.2000      -0.158093        -4.3019
 147   0.0000      -0.014650        -0.3986
 148   0.0000      -0.005975        -0.1626
 149   0.0000       0.000796         0.0217
 150   0.0000       0.018300         0.4980
 151   0.0000       0.022613         0.6153

MULLIKEN ATOMIC CHARGES AND SPIN DENSITIES
------------------------------------------
   0 Au:    0.617971    0.037454
   1 Au:    0.705881    0.023371
   2 Au:    0.330642    0.014029
   3 Au:    0.771981    0.019243
   4 Au:    0.331089    0.014350
   5 Au:    0.611991    0.038820
   6 Au:    0.330757    0.014833
   7 Au:    0.306870    0.036792
   8 Au:    0.705626    0.023357
   9 Au:    0.358943    0.009828
  10 Au:    0.312395    0.036316
  11 Au:    0.356550    0.009931
  12 Au:    0.332391    0.015151
  13 Au:    0.772229    0.019285
  14 Cr:   -6.845315    2.687241
Sum of atomic charges       :    0.0000000

LOEWDIN ATOMIC CHARGES AND SPIN DENSITIES
-----------------------------------------
   0 Au:    0.136011    0.074918
   1 Au:    0.125214    0.071036
   2 Au:    0.014856    0.036889
   3 Au:    0.191404    0.067056
   4 Au:    0.015005    0.037096
   5 Au:    0.139463    0.076070
   6 Au:    0.015485    0.038421
   7 Au:    0.033613    0.070528
   8 Au:    0.125169    0.071072
   9 Au:    0.176283    0.012863
  10 Au:    0.030595    0.069783
  11 Au:    0.177524    0.013138
  12 Au:    0.015818    0.038630
  13 Au:    0.191283    0.067007
  14 Cr:   -1.387723    2.255492

  Mayer bond orders larger than 0.100000
B(  0-Au,  2-Au) :   0.1230 B(  0-Au,  6-Au) :   0.1232 B(  0-Au, 10-Au) :   0.1210
B(  0-Au, 14-Cr) :   0.2765 B(  1-Au,  4-Au) :   0.1457 B(  1-Au,  6-Au) :   0.1458
B(  1-Au, 13-Au) :   0.1720 B(  1-Au, 14-Cr) :   0.1644 B(  2-Au,  4-Au) :   0.1385
B(  2-Au,  6-Au) :   0.1248 B(  2-Au,  7-Au) :   0.1328 B(  2-Au,  8-Au) :   0.1461
B(  2-Au, 11-Au) :   0.2152 B(  2-Au, 14-Cr) :   0.4663 B(  3-Au,  8-Au) :   0.1723
B(  3-Au, 14-Cr) :   0.1428 B(  4-Au,  5-Au) :   0.1223 B(  4-Au,  9-Au) :   0.2160
B(  4-Au, 10-Au) :   0.1341 B(  4-Au, 12-Au) :   0.1257 B(  4-Au, 14-Cr) :   0.4655
B(  5-Au,  7-Au) :   0.1204 B(  5-Au, 12-Au) :   0.1221 B(  5-Au, 14-Cr) :   0.2795
B(  6-Au,  7-Au) :   0.1321 B(  6-Au, 11-Au) :   0.2145 B(  6-Au, 12-Au) :   0.1382
B(  6-Au, 14-Cr) :   0.4616 B(  7-Au, 10-Au) :   0.2179 B(  7-Au, 11-Au) :   0.2970
B(  7-Au, 14-Cr) :   0.3537 B(  8-Au, 12-Au) :   0.1455 B(  8-Au, 14-Cr) :   0.1649
B(  9-Au, 10-Au) :   0.2954 B(  9-Au, 12-Au) :   0.2144 B(  9-Au, 14-Cr) :   0.4417
B( 10-Au, 12-Au) :   0.1333 B( 10-Au, 14-Cr) :   0.3535 B( 11-Au, 14-Cr) :   0.4424
B( 12-Au, 14-Cr) :   0.4604 B( 13-Au, 14-Cr) :   0.1425

FINAL SINGLE POINT ENERGY     -2930.480568712095

DIPOLE MOMENT
-------------
                                X             Y             Z
Electronic contribution:      0.32078       6.56547      -1.78408
Nuclear contribution   :     -0.31180      -6.42077       1.74638
                        -----------------------------------------
Total Dipole Moment    :      0.00898       0.14470      -0.03770
                        -----------------------------------------
Magnitude (a.u.)       :      0.14980
Magnitude (Debye)      :      0.38076

Rotational constants in cm-1:     0.001287     0.000950     0.000897
Rotational constants in MHz :    38.577487    28.493121    26.890241

                             ****ORCA TERMINATED NORMALLY****
TOTAL RUN TIME: 0 days 1 hours 28 minutes 52 seconds 586 msec
