                         Program Version 5.0.3 -  RELEASE  -
|  1> !RI-B2PLYP def2-TZVP def2-TZVP/C
|  2> !RIJCOSX VERYSLOWCONV
|  3>
|  4> %scf
|  5>   AutoTRAHIter 200
|  6>   maxiter 400
|  7> end
|  8>
|  9>
| 10> %pal nprocs 6 end
| 11>
| 12> *xyzfile 0 5 pbe.xyz
| 13>
| 14> $new_job
| 15>
| 16> !RI-B2PLYP def2-TZVP def2-TZVP/C
| 17> !RIJCOSX VERYSLOWCONV
| 18>
| 19> %scf
| 20>   AutoTRAHIter 200
| 21>   maxiter 400
| 22> end
| 23>
| 24>
| 25> %pal nprocs 6 end
| 26>
| 27> *xyzfile 0 3 pbe.xyz
| 28>
| 29>
| 30>
| 31>
| 32>
| 33>                          ****END OF INPUT****
 Total Charge           Charge          ....    0
 Multiplicity           Mult            ....    5
 Number of Electrons    NEL             ....  216
MP2 TOTAL ENERGY:    -2619.332852935 Eh
FINAL SINGLE POINT ENERGY     -2619.332852934523

CARTESIAN COORDINATES (ANGSTROEM)
---------------------------------
  Au     7.448548    5.574150    8.595407
  Au     9.826853    5.712805    9.811632
  Au    12.516847    6.067207   10.191755
  Au    11.319125    7.851372    8.484877
  Au    11.802269    4.819412    7.852981
  Au     7.650861    4.673505    5.908175
  Au    10.401541    4.308573    5.667404
  Au     9.126365    6.676665    4.652745
  Au     9.699912    8.721900    6.581487
  Au     7.205384    7.478852    6.498726
  Fe     9.579195    6.209157    7.240683

 Multiplicity           Mult            ....    3
 Number of Electrons    NEL             ....  216
 Basis Dimension        Dim             ....  445

ORBITAL ENERGIES
----------------
                 SPIN UP ORBITALS
  NO   OCC          E(Eh)            E(eV)
   0   1.0000    -258.329789     -7029.5109
   1   1.0000     -30.892005      -840.6142
   2   1.0000     -26.610176      -724.0997
   3   1.0000     -26.580187      -723.2837
   4   1.0000     -26.579795      -723.2730
   5   1.0000      -4.396472      -119.6341
   6   1.0000      -4.394475      -119.5797
   7   1.0000      -4.394014      -119.5672
   8   1.0000      -4.393818      -119.5619
   9   1.0000      -4.393553      -119.5547
  10   1.0000      -4.393337      -119.5488
  11   1.0000      -4.393067      -119.5414
  12   1.0000      -4.392942      -119.5380
  13   1.0000      -4.390355      -119.4676
  14   1.0000      -4.385840      -119.3448
  15   1.0000      -3.903776      -106.2272
  16   1.0000      -2.653853       -72.2150
  17   1.0000      -2.591617       -70.5215
  18   1.0000      -2.590730       -70.4973
  19   1.0000      -2.518530       -68.5327
  20   1.0000      -2.517874       -68.5148
  21   1.0000      -2.517558       -68.5062
  22   1.0000      -2.516929       -68.4891
  23   1.0000      -2.515784       -68.4580
  24   1.0000      -2.515124       -68.4400
  25   1.0000      -2.514708       -68.4287
  26   1.0000      -2.513601       -68.3986
  27   1.0000      -2.512926       -68.3802
  28   1.0000      -2.512716       -68.3745
  29   1.0000      -2.512633       -68.3722
  30   1.0000      -2.512284       -68.3627
  31   1.0000      -2.512105       -68.3579
  32   1.0000      -2.510894       -68.3249
  33   1.0000      -2.510467       -68.3133
  34   1.0000      -2.510307       -68.3089
  35   1.0000      -2.508716       -68.2656
  36   1.0000      -2.508591       -68.2622
  37   1.0000      -2.508050       -68.2475
  38   1.0000      -2.507414       -68.2302
  39   1.0000      -2.506977       -68.2183
  40   1.0000      -2.506664       -68.2098
  41   1.0000      -2.506099       -68.1944
  42   1.0000      -2.505857       -68.1878
  43   1.0000      -2.505703       -68.1836
  44   1.0000      -2.505609       -68.1811
  45   1.0000      -2.503676       -68.1285
  46   1.0000      -2.502927       -68.1081
  47   1.0000      -2.500452       -68.0408
  48   1.0000      -2.500142       -68.0323
  49   1.0000      -0.556842       -15.1524
  50   1.0000      -0.546814       -14.8796
  51   1.0000      -0.546503       -14.8711
  52   1.0000      -0.523741       -14.2517
  53   1.0000      -0.494276       -13.4499
  54   1.0000      -0.493690       -13.4340
  55   1.0000      -0.468307       -12.7433
  56   1.0000      -0.453891       -12.3510
  57   1.0000      -0.450302       -12.2533
  58   1.0000      -0.446945       -12.1620
  59   1.0000      -0.446256       -12.1432
  60   1.0000      -0.445710       -12.1284
  61   1.0000      -0.443635       -12.0719
  62   1.0000      -0.441234       -12.0066
  63   1.0000      -0.434180       -11.8146
  64   1.0000      -0.430202       -11.7064
  65   1.0000      -0.424838       -11.5604
  66   1.0000      -0.424676       -11.5560
  67   1.0000      -0.421563       -11.4713
  68   1.0000      -0.421418       -11.4674
  69   1.0000      -0.420634       -11.4460
  70   1.0000      -0.417178       -11.3520
  71   1.0000      -0.408261       -11.1093
  72   1.0000      -0.401921       -10.9368
  73   1.0000      -0.399770       -10.8783
  74   1.0000      -0.398726       -10.8499
  75   1.0000      -0.394937       -10.7468
  76   1.0000      -0.393580       -10.7098
  77   1.0000      -0.389065       -10.5870
  78   1.0000      -0.383725       -10.4417
  79   1.0000      -0.381438       -10.3794
  80   1.0000      -0.381039       -10.3686
  81   1.0000      -0.378887       -10.3101
  82   1.0000      -0.378047       -10.2872
  83   1.0000      -0.374996       -10.2042
  84   1.0000      -0.370652       -10.0860
  85   1.0000      -0.369876       -10.0648
  86   1.0000      -0.365866        -9.9557
  87   1.0000      -0.364093        -9.9075
  88   1.0000      -0.363700        -9.8968
  89   1.0000      -0.363453        -9.8901
  90   1.0000      -0.362777        -9.8717
  91   1.0000      -0.361617        -9.8401
  92   1.0000      -0.361085        -9.8256
  93   1.0000      -0.352921        -9.6035
  94   1.0000      -0.352803        -9.6003
  95   1.0000      -0.350653        -9.5418
  96   1.0000      -0.349887        -9.5209
  97   1.0000      -0.348116        -9.4727
  98   1.0000      -0.347262        -9.4495
  99   1.0000      -0.343364        -9.3434
 100   1.0000      -0.339187        -9.2297
 101   1.0000      -0.338838        -9.2202
 102   1.0000      -0.325925        -8.8689
 103   1.0000      -0.321388        -8.7454
 104   1.0000      -0.320814        -8.7298
 105   1.0000      -0.319679        -8.6989
 106   1.0000      -0.271574        -7.3899
 107   1.0000      -0.262797        -7.1511
 108   1.0000      -0.220156        -5.9908
 109   0.0000      -0.110402        -3.0042
 110   0.0000      -0.101832        -2.7710
 111   0.0000      -0.068735        -1.8704
 112   0.0000      -0.058268        -1.5856
 113   0.0000      -0.057661        -1.5690

                 SPIN DOWN ORBITALS
  NO   OCC          E(Eh)            E(eV)
   0   1.0000    -258.327697     -7029.4540
   1   1.0000     -30.799490      -838.0967
   2   1.0000     -26.511092      -721.4035
   3   1.0000     -26.502871      -721.1798
   4   1.0000     -26.502755      -721.1766
   5   1.0000      -4.397175      -119.6532
   6   1.0000      -4.394888      -119.5910
   7   1.0000      -4.394425      -119.5784
   8   1.0000      -4.394300      -119.5750
   9   1.0000      -4.394212      -119.5726
  10   1.0000      -4.394114      -119.5699
  11   1.0000      -4.392991      -119.5394
  12   1.0000      -4.392862      -119.5359
  13   1.0000      -4.390075      -119.4600
  14   1.0000      -4.386917      -119.3741
  15   1.0000      -3.660129       -99.5972
  16   1.0000      -2.518125       -68.5217
  17   1.0000      -2.517162       -68.4955
  18   1.0000      -2.516877       -68.4877
  19   1.0000      -2.515763       -68.4574
  20   1.0000      -2.515690       -68.4554
  21   1.0000      -2.514190       -68.4146
  22   1.0000      -2.514114       -68.4125
  23   1.0000      -2.513089       -68.3846
  24   1.0000      -2.512565       -68.3704
  25   1.0000      -2.512431       -68.3667
  26   1.0000      -2.511834       -68.3505
  27   1.0000      -2.511460       -68.3403
  28   1.0000      -2.511366       -68.3377
  29   1.0000      -2.510665       -68.3187
  30   1.0000      -2.510428       -68.3122
  31   1.0000      -2.509649       -68.2910
  32   1.0000      -2.509045       -68.2746
  33   1.0000      -2.508588       -68.2621
  34   1.0000      -2.508091       -68.2486
  35   1.0000      -2.507722       -68.2386
  36   1.0000      -2.507347       -68.2284
  37   1.0000      -2.506782       -68.2130
  38   1.0000      -2.506348       -68.2012
  39   1.0000      -2.505984       -68.1913
  40   1.0000      -2.505873       -68.1883
  41   1.0000      -2.505699       -68.1835
  42   1.0000      -2.504727       -68.1571
  43   1.0000      -2.503313       -68.1186
  44   1.0000      -2.501994       -68.0827
  45   1.0000      -2.501188       -68.0608
  46   1.0000      -2.337889       -63.6172
  47   1.0000      -2.337558       -63.6082
  48   1.0000      -2.326325       -63.3025
  49   1.0000      -0.496694       -13.5157
  50   1.0000      -0.474042       -12.8993
  51   1.0000      -0.464452       -12.6384
  52   1.0000      -0.457572       -12.4512
  53   1.0000      -0.456138       -12.4121
  54   1.0000      -0.455408       -12.3923
  55   1.0000      -0.453060       -12.3284
  56   1.0000      -0.451242       -12.2789
  57   1.0000      -0.445365       -12.1190
  58   1.0000      -0.440826       -11.9955
  59   1.0000      -0.432635       -11.7726
  60   1.0000      -0.432347       -11.7648
  61   1.0000      -0.427183       -11.6242
  62   1.0000      -0.426563       -11.6074
  63   1.0000      -0.426298       -11.6001
  64   1.0000      -0.425072       -11.5668
  65   1.0000      -0.422231       -11.4895
  66   1.0000      -0.421094       -11.4586
  67   1.0000      -0.415640       -11.3102
  68   1.0000      -0.412866       -11.2347
  69   1.0000      -0.407806       -11.0970
  70   1.0000      -0.406460       -11.0603
  71   1.0000      -0.403425       -10.9777
  72   1.0000      -0.400350       -10.8941
  73   1.0000      -0.394089       -10.7237
  74   1.0000      -0.384743       -10.4694
  75   1.0000      -0.383821       -10.4443
  76   1.0000      -0.383041       -10.4231
  77   1.0000      -0.381879       -10.3914
  78   1.0000      -0.378162       -10.2903
  79   1.0000      -0.376173       -10.2362
  80   1.0000      -0.374967       -10.2034
  81   1.0000      -0.371122       -10.0987
  82   1.0000      -0.370328       -10.0771
  83   1.0000      -0.367475        -9.9995
  84   1.0000      -0.366414        -9.9706
  85   1.0000      -0.365971        -9.9586
  86   1.0000      -0.364219        -9.9109
  87   1.0000      -0.362462        -9.8631
  88   1.0000      -0.354965        -9.6591
  89   1.0000      -0.353972        -9.6321
  90   1.0000      -0.353242        -9.6122
  91   1.0000      -0.352334        -9.5875
  92   1.0000      -0.351990        -9.5781
  93   1.0000      -0.349841        -9.5196
  94   1.0000      -0.349120        -9.5000
  95   1.0000      -0.343119        -9.3367
  96   1.0000      -0.341424        -9.2906
  97   1.0000      -0.331462        -9.0195
  98   1.0000      -0.330246        -8.9864
  99   1.0000      -0.326807        -8.8929
 100   1.0000      -0.322533        -8.7766
 101   1.0000      -0.320098        -8.7103
 102   1.0000      -0.285015        -7.7556
 103   1.0000      -0.282768        -7.6945
 104   1.0000      -0.232837        -6.3358
 105   1.0000      -0.214321        -5.8320
 106   1.0000      -0.206987        -5.6324
 107   0.0000      -0.077129        -2.0988
 108   0.0000      -0.070476        -1.9178
 109   0.0000      -0.069538        -1.8922
 110   0.0000      -0.046132        -1.2553
 111   0.0000      -0.014302        -0.3892

MULLIKEN ATOMIC CHARGES AND SPIN POPULATIONS
--------------------------------------------
   0 Au:    0.183075    0.016056
   1 Au:    0.016597   -0.288460
   2 Au:    0.279953    0.024434
   3 Au:    0.020028   -0.314091
   4 Au:    0.018731   -0.310890
   5 Au:    0.186724   -0.258592
   6 Au:    0.185134    0.007692
   7 Au:    0.178023   -0.238070
   8 Au:    0.184740    0.007896
   9 Au:    0.187384   -0.259373
  10 Fe:   -1.440389    3.613398
Sum of atomic charges         :   -0.0000000

LOEWDIN ATOMIC CHARGES AND SPIN POPULATIONS
-------------------------------------------
   0 Au:    0.064508   -0.110437
   1 Au:   -0.034752   -0.169295
   2 Au:    0.088759   -0.054521
   3 Au:   -0.021919   -0.173403
   4 Au:   -0.022076   -0.171418
   5 Au:    0.010912   -0.196875
   6 Au:    0.067367   -0.112876
   7 Au:    0.010780   -0.185577
   8 Au:    0.067844   -0.113920
   9 Au:    0.010953   -0.197108
  10 Fe:   -0.242375    3.485431

  Mayer bond orders larger than 0.100000
B(  0-Au,  1-Au) :   0.3588 B(  0-Au,  5-Au) :   0.1665 B(  0-Au,  9-Au) :   0.1662
B(  0-Au, 10-Fe) :   0.4971 B(  1-Au,  2-Au) :   0.3399 B(  1-Au,  3-Au) :   0.1111
B(  1-Au,  4-Au) :   0.1115 B(  1-Au, 10-Fe) :   0.5072 B(  2-Au,  3-Au) :   0.3278
B(  2-Au,  4-Au) :   0.3268 B(  3-Au,  8-Au) :   0.3802 B(  3-Au, 10-Fe) :   0.4851
B(  4-Au,  6-Au) :   0.3804 B(  4-Au, 10-Fe) :   0.4896 B(  5-Au,  6-Au) :   0.1689
B(  5-Au,  7-Au) :   0.2112 B(  5-Au,  9-Au) :   0.1876 B(  5-Au, 10-Fe) :   0.3830
B(  6-Au,  7-Au) :   0.1349 B(  6-Au, 10-Fe) :   0.5028 B(  7-Au,  8-Au) :   0.1360
B(  7-Au,  9-Au) :   0.2108 B(  7-Au, 10-Fe) :   0.4491 B(  8-Au,  9-Au) :   0.1662
B(  8-Au, 10-Fe) :   0.5041 B(  9-Au, 10-Fe) :   0.3879

MP2 TOTAL ENERGY:    -2619.336386068 Eh
FINAL SINGLE POINT ENERGY     -2619.336386068479

DIPOLE MOMENT
-------------
                                X             Y             Z
Electronic contribution:      4.53317      -0.76887       6.85925
Nuclear contribution   :     -4.56716       0.78455      -6.96334
                        -----------------------------------------
Total Dipole Moment    :     -0.03399       0.01568      -0.10409
                        -----------------------------------------
Magnitude (a.u.)       :      0.11062
Magnitude (Debye)      :      0.28116

Rotational constants in cm-1:     0.002344     0.001383     0.001329
Rotational constants in MHz :    70.257484    41.468757    39.839812

                             ****ORCA TERMINATED NORMALLY****
TOTAL RUN TIME: 0 days 0 hours 30 minutes 17 seconds 648 msec
