                         Program Version 5.0.3 -  RELEASE  -
|  1> !PBE def2-TZVP VERYSLOWCONV
|  2>
|  3> %scf
|  4>   AutoTRAHIter 200
|  5>   maxiter 400
|  6> end
|  7>
|  8>
|  9> %pal nprocs 6 end
| 10>
| 11> *xyzfile 0 5 pbe.xyz
| 12>
| 13> $new_job
| 14>
| 15> !PBE def2-TZVP VERYSLOWCONV
| 16>
| 17> %scf
| 18>   AutoTRAHIter 200
| 19>   maxiter 400
| 20> end
| 21>
| 22>
| 23> %pal nprocs 6 end
| 24>
| 25> *xyzfile 0 3 pbe.xyz
| 26>
| 27>
| 28>
| 29>
| 30>
| 31>                          ****END OF INPUT****
 Total Charge           Charge          ....    0
 Multiplicity           Mult            ....    5
 Number of Electrons    NEL             ....  216
FINAL SINGLE POINT ENERGY     -2621.730576955339

CARTESIAN COORDINATES (ANGSTROEM)
---------------------------------
  Au     7.448548    5.574150    8.595407
  Au     9.826853    5.712805    9.811632
  Au    12.516847    6.067207   10.191755
  Au    11.319125    7.851372    8.484877
  Au    11.802269    4.819412    7.852981
  Au     7.650861    4.673505    5.908175
  Au    10.401541    4.308573    5.667404
  Au     9.126365    6.676665    4.652745
  Au     9.699912    8.721900    6.581487
  Au     7.205384    7.478852    6.498726
  Fe     9.579195    6.209157    7.240683

 Multiplicity           Mult            ....    3
 Number of Electrons    NEL             ....  216
 Basis Dimension        Dim             ....  445

ORBITAL ENERGIES
----------------
                 SPIN UP ORBITALS
  NO   OCC          E(Eh)            E(eV)
   0   1.0000    -254.744161     -6931.9410
   1   1.0000     -29.581790      -804.9614
   2   1.0000     -25.528208      -694.6579
   3   1.0000     -25.512693      -694.2357
   4   1.0000     -25.511551      -694.2046
   5   1.0000      -4.022579      -109.4599
   6   1.0000      -4.022344      -109.4535
   7   1.0000      -4.021018      -109.4175
   8   1.0000      -4.020856      -109.4130
   9   1.0000      -4.019143      -109.3664
  10   1.0000      -4.018945      -109.3611
  11   1.0000      -4.018820      -109.3577
  12   1.0000      -4.018712      -109.3547
  13   1.0000      -4.017758      -109.3287
  14   1.0000      -4.016308      -109.2893
  15   1.0000      -3.357583       -91.3645
  16   1.0000      -2.241186       -60.9858
  17   1.0000      -2.240283       -60.9612
  18   1.0000      -2.240125       -60.9569
  19   1.0000      -2.239265       -60.9335
  20   1.0000      -2.238047       -60.9004
  21   1.0000      -2.236968       -60.8710
  22   1.0000      -2.235631       -60.8346
  23   1.0000      -2.235375       -60.8276
  24   1.0000      -2.235091       -60.8199
  25   1.0000      -2.234574       -60.8058
  26   1.0000      -2.234285       -60.7980
  27   1.0000      -2.234110       -60.7932
  28   1.0000      -2.233602       -60.7794
  29   1.0000      -2.233579       -60.7788
  30   1.0000      -2.232720       -60.7554
  31   1.0000      -2.232618       -60.7526
  32   1.0000      -2.232026       -60.7365
  33   1.0000      -2.231686       -60.7273
  34   1.0000      -2.231348       -60.7181
  35   1.0000      -2.230373       -60.6915
  36   1.0000      -2.229114       -60.6573
  37   1.0000      -2.228993       -60.6540
  38   1.0000      -2.228677       -60.6454
  39   1.0000      -2.228334       -60.6360
  40   1.0000      -2.228161       -60.6314
  41   1.0000      -2.227450       -60.6120
  42   1.0000      -2.227234       -60.6061
  43   1.0000      -2.226791       -60.5941
  44   1.0000      -2.226703       -60.5917
  45   1.0000      -2.223983       -60.5177
  46   1.0000      -2.192871       -59.6711
  47   1.0000      -2.161710       -58.8231
  48   1.0000      -2.159260       -58.7565
  49   1.0000      -0.412654       -11.2289
  50   1.0000      -0.382502       -10.4084
  51   1.0000      -0.365349        -9.9417
  52   1.0000      -0.361381        -9.8337
  53   1.0000      -0.359688        -9.7876
  54   1.0000      -0.359345        -9.7783
  55   1.0000      -0.357025        -9.7151
  56   1.0000      -0.355497        -9.6736
  57   1.0000      -0.337327        -9.1791
  58   1.0000      -0.334288        -9.0964
  59   1.0000      -0.333775        -9.0825
  60   1.0000      -0.327867        -8.9217
  61   1.0000      -0.325711        -8.8630
  62   1.0000      -0.324808        -8.8385
  63   1.0000      -0.321390        -8.7455
  64   1.0000      -0.320429        -8.7193
  65   1.0000      -0.320167        -8.7122
  66   1.0000      -0.317799        -8.6477
  67   1.0000      -0.315280        -8.5792
  68   1.0000      -0.314860        -8.5678
  69   1.0000      -0.313374        -8.5273
  70   1.0000      -0.312832        -8.5126
  71   1.0000      -0.304800        -8.2940
  72   1.0000      -0.297172        -8.0865
  73   1.0000      -0.295812        -8.0494
  74   1.0000      -0.291746        -7.9388
  75   1.0000      -0.286485        -7.7957
  76   1.0000      -0.285688        -7.7740
  77   1.0000      -0.285023        -7.7559
  78   1.0000      -0.279877        -7.6158
  79   1.0000      -0.277220        -7.5435
  80   1.0000      -0.276025        -7.5110
  81   1.0000      -0.274742        -7.4761
  82   1.0000      -0.271878        -7.3982
  83   1.0000      -0.271663        -7.3923
  84   1.0000      -0.271339        -7.3835
  85   1.0000      -0.267083        -7.2677
  86   1.0000      -0.266737        -7.2583
  87   1.0000      -0.263637        -7.1739
  88   1.0000      -0.261404        -7.1132
  89   1.0000      -0.258943        -7.0462
  90   1.0000      -0.257885        -7.0174
  91   1.0000      -0.257269        -7.0006
  92   1.0000      -0.254614        -6.9284
  93   1.0000      -0.254410        -6.9229
  94   1.0000      -0.253236        -6.8909
  95   1.0000      -0.250076        -6.8049
  96   1.0000      -0.246783        -6.7153
  97   1.0000      -0.245924        -6.6919
  98   1.0000      -0.243775        -6.6334
  99   1.0000      -0.243393        -6.6231
 100   1.0000      -0.242474        -6.5980
 101   1.0000      -0.238803        -6.4981
 102   1.0000      -0.237273        -6.4565
 103   1.0000      -0.233330        -6.3492
 104   1.0000      -0.232588        -6.3290
 105   1.0000      -0.232390        -6.3236
 106   1.0000      -0.222953        -6.0669
 107   1.0000      -0.217833        -5.9275
 108   1.0000      -0.202112        -5.4997
 109   0.0000      -0.175499        -4.7756
 110   0.0000      -0.168412        -4.5827
 111   0.0000      -0.130790        -3.5590
 112   0.0000      -0.128617        -3.4999
 113   0.0000      -0.128383        -3.4935

                 SPIN DOWN ORBITALS
  NO   OCC          E(Eh)            E(eV)
   0   1.0000    -254.743487     -6931.9227
   1   1.0000     -29.526809      -803.4653
   2   1.0000     -25.482101      -693.4032
   3   1.0000     -25.473189      -693.1607
   4   1.0000     -25.472585      -693.1443
   5   1.0000      -4.022701      -109.4633
   6   1.0000      -4.022101      -109.4469
   7   1.0000      -4.020643      -109.4073
   8   1.0000      -4.020491      -109.4031
   9   1.0000      -4.019439      -109.3745
  10   1.0000      -4.019246      -109.3692
  11   1.0000      -4.018765      -109.3561
  12   1.0000      -4.018662      -109.3533
  13   1.0000      -4.018650      -109.3530
  14   1.0000      -4.016103      -109.2837
  15   1.0000      -3.232847       -87.9702
  16   1.0000      -2.240836       -60.9762
  17   1.0000      -2.239732       -60.9462
  18   1.0000      -2.239657       -60.9442
  19   1.0000      -2.238979       -60.9257
  20   1.0000      -2.237304       -60.8801
  21   1.0000      -2.237292       -60.8798
  22   1.0000      -2.235158       -60.8218
  23   1.0000      -2.234959       -60.8163
  24   1.0000      -2.234763       -60.8110
  25   1.0000      -2.234709       -60.8095
  26   1.0000      -2.234227       -60.7964
  27   1.0000      -2.234163       -60.7947
  28   1.0000      -2.233645       -60.7806
  29   1.0000      -2.233254       -60.7699
  30   1.0000      -2.232980       -60.7625
  31   1.0000      -2.232665       -60.7539
  32   1.0000      -2.232076       -60.7379
  33   1.0000      -2.231576       -60.7243
  34   1.0000      -2.231124       -60.7120
  35   1.0000      -2.230502       -60.6950
  36   1.0000      -2.229514       -60.6681
  37   1.0000      -2.229309       -60.6626
  38   1.0000      -2.229122       -60.6575
  39   1.0000      -2.228995       -60.6540
  40   1.0000      -2.228799       -60.6487
  41   1.0000      -2.227557       -60.6149
  42   1.0000      -2.227331       -60.6087
  43   1.0000      -2.226859       -60.5959
  44   1.0000      -2.226774       -60.5936
  45   1.0000      -2.224329       -60.5271
  46   1.0000      -2.057743       -55.9940
  47   1.0000      -2.045297       -55.6554
  48   1.0000      -2.044639       -55.6375
  49   1.0000      -0.408652       -11.1200
  50   1.0000      -0.383497       -10.4355
  51   1.0000      -0.363484        -9.8909
  52   1.0000      -0.357920        -9.7395
  53   1.0000      -0.356841        -9.7101
  54   1.0000      -0.356420        -9.6987
  55   1.0000      -0.352117        -9.5816
  56   1.0000      -0.351892        -9.5755
  57   1.0000      -0.339046        -9.2259
  58   1.0000      -0.332289        -9.0421
  59   1.0000      -0.328211        -8.9311
  60   1.0000      -0.327011        -8.8984
  61   1.0000      -0.323971        -8.8157
  62   1.0000      -0.323061        -8.7909
  63   1.0000      -0.321688        -8.7536
  64   1.0000      -0.318359        -8.6630
  65   1.0000      -0.317033        -8.6269
  66   1.0000      -0.315265        -8.5788
  67   1.0000      -0.311983        -8.4895
  68   1.0000      -0.310860        -8.4589
  69   1.0000      -0.309786        -8.4297
  70   1.0000      -0.305687        -8.3182
  71   1.0000      -0.304146        -8.2762
  72   1.0000      -0.297554        -8.0969
  73   1.0000      -0.296432        -8.0663
  74   1.0000      -0.288697        -7.8558
  75   1.0000      -0.286217        -7.7884
  76   1.0000      -0.286166        -7.7870
  77   1.0000      -0.281432        -7.6582
  78   1.0000      -0.280540        -7.6339
  79   1.0000      -0.277119        -7.5408
  80   1.0000      -0.274234        -7.4623
  81   1.0000      -0.273140        -7.4325
  82   1.0000      -0.270407        -7.3581
  83   1.0000      -0.270256        -7.3541
  84   1.0000      -0.269072        -7.3218
  85   1.0000      -0.267752        -7.2859
  86   1.0000      -0.266796        -7.2599
  87   1.0000      -0.264629        -7.2009
  88   1.0000      -0.262376        -7.1396
  89   1.0000      -0.258801        -7.0423
  90   1.0000      -0.257546        -7.0082
  91   1.0000      -0.255300        -6.9471
  92   1.0000      -0.255003        -6.9390
  93   1.0000      -0.254846        -6.9347
  94   1.0000      -0.251939        -6.8556
  95   1.0000      -0.251540        -6.8448
  96   1.0000      -0.247345        -6.7306
  97   1.0000      -0.246583        -6.7099
  98   1.0000      -0.239182        -6.5085
  99   1.0000      -0.236237        -6.4283
 100   1.0000      -0.235440        -6.4067
 101   1.0000      -0.234566        -6.3829
 102   1.0000      -0.230509        -6.2725
 103   1.0000      -0.210592        -5.7305
 104   1.0000      -0.195615        -5.3230
 105   1.0000      -0.190636        -5.1875
 106   1.0000      -0.169104        -4.6016
 107   0.0000      -0.156457        -4.2574
 108   0.0000      -0.151788        -4.1303
 109   0.0000      -0.147780        -4.0213
 110   0.0000      -0.141486        -3.8500
 111   0.0000      -0.127864        -3.4794

MULLIKEN ATOMIC CHARGES AND SPIN POPULATIONS
--------------------------------------------
   0 Au:    0.219214    0.001563
   1 Au:    0.090996   -0.150145
   2 Au:    0.333425    0.025287
   3 Au:    0.061156   -0.182357
   4 Au:    0.060685   -0.180044
   5 Au:    0.204376   -0.157539
   6 Au:    0.217897    0.004936
   7 Au:    0.217408   -0.127001
   8 Au:    0.218629    0.004530
   9 Au:    0.205347   -0.156969
  10 Fe:   -1.829133    2.917739
Sum of atomic charges         :   -0.0000000

LOEWDIN ATOMIC CHARGES AND SPIN POPULATIONS
-------------------------------------------
   0 Au:    0.091324   -0.071611
   1 Au:    0.011584   -0.096107
   2 Au:    0.075867   -0.042941
   3 Au:    0.021266   -0.094187
   4 Au:    0.021462   -0.092564
   5 Au:    0.033461   -0.127863
   6 Au:    0.094351   -0.067546
   7 Au:    0.045353   -0.107129
   8 Au:    0.094647   -0.068550
   9 Au:    0.034244   -0.127356
  10 Fe:   -0.523559    2.895853

  Mayer bond orders larger than 0.100000
B(  0-Au,  1-Au) :   0.3656 B(  0-Au,  5-Au) :   0.1969 B(  0-Au,  9-Au) :   0.1954
B(  0-Au, 10-Fe) :   0.5469 B(  1-Au,  2-Au) :   0.3606 B(  1-Au,  3-Au) :   0.1493
B(  1-Au,  4-Au) :   0.1502 B(  1-Au, 10-Fe) :   0.5983 B(  2-Au,  3-Au) :   0.3589
B(  2-Au,  4-Au) :   0.3580 B(  2-Au, 10-Fe) :   0.1122 B(  3-Au,  8-Au) :   0.3798
B(  3-Au, 10-Fe) :   0.5990 B(  4-Au,  6-Au) :   0.3799 B(  4-Au, 10-Fe) :   0.6021
B(  5-Au,  6-Au) :   0.1978 B(  5-Au,  7-Au) :   0.2464 B(  5-Au,  9-Au) :   0.2068
B(  5-Au, 10-Fe) :   0.4872 B(  6-Au,  7-Au) :   0.1630 B(  6-Au, 10-Fe) :   0.5441
B(  7-Au,  8-Au) :   0.1649 B(  7-Au,  9-Au) :   0.2465 B(  7-Au, 10-Fe) :   0.5316
B(  8-Au,  9-Au) :   0.1952 B(  8-Au, 10-Fe) :   0.5441 B(  9-Au, 10-Fe) :   0.4934

FINAL SINGLE POINT ENERGY     -2621.724859047699

DIPOLE MOMENT
-------------
                                X             Y             Z
Electronic contribution:      4.59600      -0.75916       6.86482
Nuclear contribution   :     -4.56716       0.78455      -6.96334
                        -----------------------------------------
Total Dipole Moment    :      0.02884       0.02539      -0.09852
                        -----------------------------------------
Magnitude (a.u.)       :      0.10574
Magnitude (Debye)      :      0.26878

Rotational constants in cm-1:     0.002344     0.001383     0.001329
Rotational constants in MHz :    70.257484    41.468757    39.839812

                             ****ORCA TERMINATED NORMALLY****
TOTAL RUN TIME: 0 days 0 hours 8 minutes 19 seconds 591 msec
