                         Program Version 5.0.3 -  RELEASE  -
|  1> !R2SCAN def2-TZVP VERYSLOWCONV
|  2>
|  3> %scf
|  4>   AutoTRAHIter 400
|  5>   maxiter 800
|  6> end
|  7>
|  8> %pal nprocs 6 end
|  9>
| 10> *xyzfile 0 5 pbe.xyz
| 11>
| 12> $new_job
| 13>
| 14> !R2SCAN def2-TZVP VERYSLOWCONV
| 15> %scf
| 16>   AutoTRAHIter 400
| 17>   maxiter 800
| 18> end
| 19>
| 20>
| 21> %pal nprocs 6 end
| 22>
| 23> *xyzfile 0 3 pbe.xyz
| 24>
| 25>
| 26>
| 27>
| 28>
| 29>                          ****END OF INPUT****
 Total Charge           Charge          ....    0
 Multiplicity           Mult            ....    5
 Number of Electrons    NEL             ....  216
FINAL SINGLE POINT ENERGY     -2622.132529511955

CARTESIAN COORDINATES (ANGSTROEM)
---------------------------------
  Au     7.448548    5.574150    8.595407
  Au     9.826853    5.712805    9.811632
  Au    12.516847    6.067207   10.191755
  Au    11.319125    7.851372    8.484877
  Au    11.802269    4.819412    7.852981
  Au     7.650861    4.673505    5.908175
  Au    10.401541    4.308573    5.667404
  Au     9.126365    6.676665    4.652745
  Au     9.699912    8.721900    6.581487
  Au     7.205384    7.478852    6.498726
  Fe     9.579195    6.209157    7.240683

 Multiplicity           Mult            ....    3
 Number of Electrons    NEL             ....  216
 Basis Dimension        Dim             ....  445

ORBITAL ENERGIES
----------------
                 SPIN UP ORBITALS
  NO   OCC          E(Eh)            E(eV)
   0   1.0000    -255.627780     -6955.9855
   1   1.0000     -29.926994      -814.3549
   2   1.0000     -25.770024      -701.2380
   3   1.0000     -25.751695      -700.7393
   4   1.0000     -25.750668      -700.7113
   5   1.0000      -4.113951      -111.9463
   6   1.0000      -4.113475      -111.9333
   7   1.0000      -4.111845      -111.8890
   8   1.0000      -4.111706      -111.8852
   9   1.0000      -4.110426      -111.8504
  10   1.0000      -4.110287      -111.8466
  11   1.0000      -4.110153      -111.8430
  12   1.0000      -4.110009      -111.8390
  13   1.0000      -4.108253      -111.7912
  14   1.0000      -4.107403      -111.7681
  15   1.0000      -3.505440       -95.3879
  16   1.0000      -2.305118       -62.7254
  17   1.0000      -2.304242       -62.7016
  18   1.0000      -2.303990       -62.6947
  19   1.0000      -2.303943       -62.6935
  20   1.0000      -2.302389       -62.6512
  21   1.0000      -2.301216       -62.6193
  22   1.0000      -2.299644       -62.5765
  23   1.0000      -2.299380       -62.5693
  24   1.0000      -2.299074       -62.5610
  25   1.0000      -2.298818       -62.5540
  26   1.0000      -2.298474       -62.5446
  27   1.0000      -2.298229       -62.5380
  28   1.0000      -2.297730       -62.5244
  29   1.0000      -2.297433       -62.5163
  30   1.0000      -2.296663       -62.4954
  31   1.0000      -2.296470       -62.4901
  32   1.0000      -2.295900       -62.4746
  33   1.0000      -2.295511       -62.4640
  34   1.0000      -2.295049       -62.4515
  35   1.0000      -2.294642       -62.4404
  36   1.0000      -2.294206       -62.4285
  37   1.0000      -2.293219       -62.4017
  38   1.0000      -2.292950       -62.3943
  39   1.0000      -2.292856       -62.3918
  40   1.0000      -2.291622       -62.3582
  41   1.0000      -2.291404       -62.3523
  42   1.0000      -2.291316       -62.3499
  43   1.0000      -2.291112       -62.3443
  44   1.0000      -2.290949       -62.3399
  45   1.0000      -2.290659       -62.3320
  46   1.0000      -2.287953       -62.2584
  47   1.0000      -2.258395       -61.4540
  48   1.0000      -2.256088       -61.3913
  49   1.0000      -0.419789       -11.4230
  50   1.0000      -0.388451       -10.5703
  51   1.0000      -0.377727       -10.2785
  52   1.0000      -0.374396       -10.1878
  53   1.0000      -0.371254       -10.1023
  54   1.0000      -0.368653       -10.0316
  55   1.0000      -0.368318       -10.0224
  56   1.0000      -0.364502        -9.9186
  57   1.0000      -0.347404        -9.4534
  58   1.0000      -0.346866        -9.4387
  59   1.0000      -0.345271        -9.3953
  60   1.0000      -0.337509        -9.1841
  61   1.0000      -0.336181        -9.1479
  62   1.0000      -0.334799        -9.1103
  63   1.0000      -0.332896        -9.0586
  64   1.0000      -0.331608        -9.0235
  65   1.0000      -0.329531        -8.9670
  66   1.0000      -0.329454        -8.9649
  67   1.0000      -0.326646        -8.8885
  68   1.0000      -0.325387        -8.8542
  69   1.0000      -0.323458        -8.8018
  70   1.0000      -0.322220        -8.7681
  71   1.0000      -0.313807        -8.5391
  72   1.0000      -0.305976        -8.3260
  73   1.0000      -0.305454        -8.3118
  74   1.0000      -0.303700        -8.2641
  75   1.0000      -0.294697        -8.0191
  76   1.0000      -0.294068        -8.0020
  77   1.0000      -0.293442        -7.9850
  78   1.0000      -0.289493        -7.8775
  79   1.0000      -0.287234        -7.8160
  80   1.0000      -0.286118        -7.7857
  81   1.0000      -0.284387        -7.7386
  82   1.0000      -0.281552        -7.6614
  83   1.0000      -0.280629        -7.6363
  84   1.0000      -0.280337        -7.6284
  85   1.0000      -0.275904        -7.5077
  86   1.0000      -0.275319        -7.4918
  87   1.0000      -0.272161        -7.4059
  88   1.0000      -0.269954        -7.3458
  89   1.0000      -0.268468        -7.3054
  90   1.0000      -0.268120        -7.2959
  91   1.0000      -0.267291        -7.2733
  92   1.0000      -0.263496        -7.1701
  93   1.0000      -0.262842        -7.1523
  94   1.0000      -0.261082        -7.1044
  95   1.0000      -0.259320        -7.0564
  96   1.0000      -0.258299        -7.0287
  97   1.0000      -0.256478        -6.9791
  98   1.0000      -0.254690        -6.9305
  99   1.0000      -0.253696        -6.9034
 100   1.0000      -0.252631        -6.8744
 101   1.0000      -0.251467        -6.8428
 102   1.0000      -0.247485        -6.7344
 103   1.0000      -0.240934        -6.5561
 104   1.0000      -0.239688        -6.5222
 105   1.0000      -0.239439        -6.5155
 106   1.0000      -0.228967        -6.2305
 107   1.0000      -0.227364        -6.1869
 108   1.0000      -0.203699        -5.5429
 109   0.0000      -0.173071        -4.7095
 110   0.0000      -0.165611        -4.5065
 111   0.0000      -0.125883        -3.4255
 112   0.0000      -0.123719        -3.3666
 113   0.0000      -0.123346        -3.3564

                 SPIN DOWN ORBITALS
  NO   OCC          E(Eh)            E(eV)
   0   1.0000    -255.626760     -6955.9578
   1   1.0000     -29.850542      -812.2745
   2   1.0000     -25.704766      -699.4622
   3   1.0000     -25.696537      -699.2383
   4   1.0000     -25.696092      -699.2262
   5   1.0000      -4.114342      -111.9569
   6   1.0000      -4.113371      -111.9305
   7   1.0000      -4.111669      -111.8842
   8   1.0000      -4.111526      -111.8803
   9   1.0000      -4.110959      -111.8649
  10   1.0000      -4.110695      -111.8577
  11   1.0000      -4.110428      -111.8504
  12   1.0000      -4.110121      -111.8421
  13   1.0000      -4.109303      -111.8198
  14   1.0000      -4.107360      -111.7669
  15   1.0000      -3.336222       -90.7832
  16   1.0000      -2.304543       -62.7098
  17   1.0000      -2.303607       -62.6843
  18   1.0000      -2.303471       -62.6806
  19   1.0000      -2.303344       -62.6772
  20   1.0000      -2.301529       -62.6278
  21   1.0000      -2.301221       -62.6194
  22   1.0000      -2.299350       -62.5685
  23   1.0000      -2.298909       -62.5565
  24   1.0000      -2.298731       -62.5517
  25   1.0000      -2.298482       -62.5449
  26   1.0000      -2.298236       -62.5382
  27   1.0000      -2.298042       -62.5329
  28   1.0000      -2.297822       -62.5269
  29   1.0000      -2.297295       -62.5126
  30   1.0000      -2.297082       -62.5068
  31   1.0000      -2.296440       -62.4893
  32   1.0000      -2.296011       -62.4776
  33   1.0000      -2.295522       -62.4643
  34   1.0000      -2.294931       -62.4482
  35   1.0000      -2.294591       -62.4390
  36   1.0000      -2.293665       -62.4138
  37   1.0000      -2.293257       -62.4027
  38   1.0000      -2.293076       -62.3978
  39   1.0000      -2.292776       -62.3896
  40   1.0000      -2.292134       -62.3721
  41   1.0000      -2.291708       -62.3605
  42   1.0000      -2.291418       -62.3526
  43   1.0000      -2.291134       -62.3449
  44   1.0000      -2.290846       -62.3371
  45   1.0000      -2.288443       -62.2717
  46   1.0000      -2.113171       -57.5023
  47   1.0000      -2.099353       -57.1263
  48   1.0000      -2.099004       -57.1168
  49   1.0000      -0.416414       -11.3312
  50   1.0000      -0.390497       -10.6260
  51   1.0000      -0.372120       -10.1259
  52   1.0000      -0.366546        -9.9742
  53   1.0000      -0.366082        -9.9616
  54   1.0000      -0.366060        -9.9610
  55   1.0000      -0.361205        -9.8289
  56   1.0000      -0.360986        -9.8229
  57   1.0000      -0.349120        -9.5000
  58   1.0000      -0.342411        -9.3175
  59   1.0000      -0.338093        -9.2000
  60   1.0000      -0.336710        -9.1623
  61   1.0000      -0.333858        -9.0847
  62   1.0000      -0.332898        -9.0586
  63   1.0000      -0.331563        -9.0223
  64   1.0000      -0.328426        -8.9369
  65   1.0000      -0.326635        -8.8882
  66   1.0000      -0.325136        -8.8474
  67   1.0000      -0.320975        -8.7342
  68   1.0000      -0.320552        -8.7227
  69   1.0000      -0.319319        -8.6891
  70   1.0000      -0.314823        -8.5668
  71   1.0000      -0.313008        -8.5174
  72   1.0000      -0.306350        -8.3362
  73   1.0000      -0.306148        -8.3307
  74   1.0000      -0.297610        -8.0984
  75   1.0000      -0.294827        -8.0226
  76   1.0000      -0.294656        -8.0180
  77   1.0000      -0.290109        -7.8943
  78   1.0000      -0.289868        -7.8877
  79   1.0000      -0.286363        -7.7923
  80   1.0000      -0.283318        -7.7095
  81   1.0000      -0.281666        -7.6645
  82   1.0000      -0.279095        -7.5946
  83   1.0000      -0.278866        -7.5883
  84   1.0000      -0.277751        -7.5580
  85   1.0000      -0.276741        -7.5305
  86   1.0000      -0.275162        -7.4875
  87   1.0000      -0.272433        -7.4133
  88   1.0000      -0.271227        -7.3805
  89   1.0000      -0.267003        -7.2655
  90   1.0000      -0.265789        -7.2325
  91   1.0000      -0.264179        -7.1887
  92   1.0000      -0.263556        -7.1717
  93   1.0000      -0.263421        -7.1681
  94   1.0000      -0.260259        -7.0820
  95   1.0000      -0.258950        -7.0464
  96   1.0000      -0.255784        -6.9602
  97   1.0000      -0.254802        -6.9335
  98   1.0000      -0.246580        -6.7098
  99   1.0000      -0.242841        -6.6080
 100   1.0000      -0.242555        -6.6003
 101   1.0000      -0.242177        -6.5900
 102   1.0000      -0.236146        -6.4259
 103   1.0000      -0.212496        -5.7823
 104   1.0000      -0.196965        -5.3597
 105   1.0000      -0.191333        -5.2064
 106   1.0000      -0.174600        -4.7511
 107   0.0000      -0.147797        -4.0218
 108   0.0000      -0.143348        -3.9007
 109   0.0000      -0.138106        -3.7581
 110   0.0000      -0.132763        -3.6127
 111   0.0000      -0.125413        -3.4126

MULLIKEN ATOMIC CHARGES AND SPIN POPULATIONS
--------------------------------------------
   0 Au:    0.194791   -0.000395
   1 Au:    0.085223   -0.183252
   2 Au:    0.286329    0.026489
   3 Au:    0.051796   -0.223367
   4 Au:    0.055625   -0.219472
   5 Au:    0.190485   -0.193158
   6 Au:    0.197274    0.005657
   7 Au:    0.200014   -0.165892
   8 Au:    0.198560    0.007210
   9 Au:    0.192162   -0.190659
  10 Fe:   -1.652259    3.136839
Sum of atomic charges         :   -0.0000000

LOEWDIN ATOMIC CHARGES AND SPIN POPULATIONS
-------------------------------------------
   0 Au:    0.081697   -0.086036
   1 Au:    0.005152   -0.114198
   2 Au:    0.068784   -0.048743
   3 Au:    0.013648   -0.115394
   4 Au:    0.013743   -0.115356
   5 Au:    0.029100   -0.151465
   6 Au:    0.085388   -0.081757
   7 Au:    0.038582   -0.134540
   8 Au:    0.086383   -0.080837
   9 Au:    0.030270   -0.149645
  10 Fe:   -0.452748    3.077972

  Mayer bond orders larger than 0.100000
B(  0-Au,  1-Au) :   0.3758 B(  0-Au,  5-Au) :   0.1783 B(  0-Au,  9-Au) :   0.1778
B(  0-Au, 10-Fe) :   0.5327 B(  1-Au,  2-Au) :   0.3499 B(  1-Au,  3-Au) :   0.1176
B(  1-Au,  4-Au) :   0.1196 B(  1-Au, 10-Fe) :   0.5791 B(  2-Au,  3-Au) :   0.3476
B(  2-Au,  4-Au) :   0.3473 B(  3-Au,  8-Au) :   0.3884 B(  3-Au, 10-Fe) :   0.5768
B(  4-Au,  6-Au) :   0.3902 B(  4-Au, 10-Fe) :   0.5739 B(  5-Au,  6-Au) :   0.1832
B(  5-Au,  7-Au) :   0.2315 B(  5-Au,  9-Au) :   0.1952 B(  5-Au, 10-Fe) :   0.4536
B(  6-Au,  7-Au) :   0.1450 B(  6-Au, 10-Fe) :   0.5375 B(  7-Au,  8-Au) :   0.1457
B(  7-Au,  9-Au) :   0.2329 B(  7-Au, 10-Fe) :   0.5074 B(  8-Au,  9-Au) :   0.1809
B(  8-Au, 10-Fe) :   0.5359 B(  9-Au, 10-Fe) :   0.4561

FINAL SINGLE POINT ENERGY     -2622.125322332950

DIPOLE MOMENT
-------------
                                X             Y             Z
Electronic contribution:      4.55214      -0.74766       6.84082
Nuclear contribution   :     -4.56716       0.78455      -6.96334
                        -----------------------------------------
Total Dipole Moment    :     -0.01502       0.03689      -0.12251
                        -----------------------------------------
Magnitude (a.u.)       :      0.12883
Magnitude (Debye)      :      0.32745

Rotational constants in cm-1:     0.002344     0.001383     0.001329
Rotational constants in MHz :    70.257484    41.468757    39.839812

                             ****ORCA TERMINATED NORMALLY****
TOTAL RUN TIME: 0 days 0 hours 10 minutes 51 seconds 41 msec
