                         Program Version 5.0.3 -  RELEASE  -
|  1> %pal nprocs 1 end
|  2>
|  3> !PBE def2-TZVP OPT UNO
|  4> !SLOWCONV KDIIS
|  5>
|  6> %geom maxiter 300 end
|  7>
|  8> *xyzfile 0 3 4.xyz                           ****END OF INPUT****
 Total Charge           Charge          ....    0
 Multiplicity           Mult            ....    3
 Number of Electrons    NEL             ....  214
FINAL SINGLE POINT ENERGY     -2402.469926811472
FINAL SINGLE POINT ENERGY     -2402.471153108898
FINAL SINGLE POINT ENERGY     -2402.471966115690
FINAL SINGLE POINT ENERGY     -2402.473306028116
FINAL SINGLE POINT ENERGY     -2402.474858349554
FINAL SINGLE POINT ENERGY     -2402.476588129454
FINAL SINGLE POINT ENERGY     -2402.478324699692
FINAL SINGLE POINT ENERGY     -2402.479769037928
FINAL SINGLE POINT ENERGY     -2402.481439965849
FINAL SINGLE POINT ENERGY     -2402.483072031836
FINAL SINGLE POINT ENERGY     -2402.484539559920
FINAL SINGLE POINT ENERGY     -2402.484678461434
FINAL SINGLE POINT ENERGY     -2402.484797982283
FINAL SINGLE POINT ENERGY     -2402.485014150431
FINAL SINGLE POINT ENERGY     -2402.485118226446
FINAL SINGLE POINT ENERGY     -2402.485191157678
FINAL SINGLE POINT ENERGY     -2402.485200688130
FINAL SINGLE POINT ENERGY     -2402.485205687416
FINAL SINGLE POINT ENERGY     -2402.485206903085
                    ***********************HURRAY********************

CARTESIAN COORDINATES (ANGSTROEM)
---------------------------------
  Au    10.877601    6.547105    8.624040
  Au    10.111125    4.077084    7.477878
  Au     7.497399    3.510083    8.518346
  Au     7.688443    7.039627    5.547077
  Au     9.310027    8.462649    7.376383
  Au     7.836663    4.260107    5.853316
  Au     9.113535    5.090932   10.288330
  Au     6.415956    5.704797    9.858228
  Au     5.771935    5.620071    7.144628
  Au     6.687857    8.053827    8.356418
  Cr     8.369282    6.039198    7.916781

 Multiplicity           Mult            ....    3
 Number of Electrons    NEL             ....  214
 Basis Dimension        Dim             ....  445

ORBITAL ENERGIES
----------------
                 SPIN UP ORBITALS
  NO   OCC          E(Eh)            E(eV)
   0   1.0000    -214.500556     -5836.8569
   1   1.0000     -24.302727      -661.3108
   2   1.0000     -20.667631      -562.3948
   3   1.0000     -20.666033      -562.3513
   4   1.0000     -20.665716      -562.3427
   5   1.0000      -4.022706      -109.4634
   6   1.0000      -4.022645      -109.4617
   7   1.0000      -4.022193      -109.4494
   8   1.0000      -4.022153      -109.4484
   9   1.0000      -4.016100      -109.2836
  10   1.0000      -4.016093      -109.2835
  11   1.0000      -4.016082      -109.2832
  12   1.0000      -4.016073      -109.2829
  13   1.0000      -4.011357      -109.1546
  14   1.0000      -4.011221      -109.1509
  15   1.0000      -2.798702       -76.1566
  16   1.0000      -2.239399       -60.9371
  17   1.0000      -2.239005       -60.9264
  18   1.0000      -2.238230       -60.9053
  19   1.0000      -2.237983       -60.8986
  20   1.0000      -2.236791       -60.8662
  21   1.0000      -2.236246       -60.8513
  22   1.0000      -2.235540       -60.8321
  23   1.0000      -2.234785       -60.8116
  24   1.0000      -2.234653       -60.8080
  25   1.0000      -2.233865       -60.7866
  26   1.0000      -2.233734       -60.7830
  27   1.0000      -2.233159       -60.7674
  28   1.0000      -2.233148       -60.7671
  29   1.0000      -2.232676       -60.7542
  30   1.0000      -2.232380       -60.7461
  31   1.0000      -2.232009       -60.7360
  32   1.0000      -2.230103       -60.6842
  33   1.0000      -2.229645       -60.6717
  34   1.0000      -2.228363       -60.6368
  35   1.0000      -2.228280       -60.6346
  36   1.0000      -2.228227       -60.6331
  37   1.0000      -2.227598       -60.6160
  38   1.0000      -2.225108       -60.5483
  39   1.0000      -2.225073       -60.5473
  40   1.0000      -2.224858       -60.5415
  41   1.0000      -2.224850       -60.5412
  42   1.0000      -2.223881       -60.5149
  43   1.0000      -2.221167       -60.4410
  44   1.0000      -2.220502       -60.4229
  45   1.0000      -2.220214       -60.4151
  46   1.0000      -1.789312       -48.6897
  47   1.0000      -1.787729       -48.6466
  48   1.0000      -1.787122       -48.6301
  49   1.0000      -0.414731       -11.2854
  50   1.0000      -0.368828       -10.0363
  51   1.0000      -0.368539       -10.0285
  52   1.0000      -0.364374        -9.9151
  53   1.0000      -0.357069        -9.7163
  54   1.0000      -0.351087        -9.5536
  55   1.0000      -0.347745        -9.4626
  56   1.0000      -0.341997        -9.3062
  57   1.0000      -0.338333        -9.2065
  58   1.0000      -0.335802        -9.1376
  59   1.0000      -0.331168        -9.0115
  60   1.0000      -0.325268        -8.8510
  61   1.0000      -0.325246        -8.8504
  62   1.0000      -0.323743        -8.8095
  63   1.0000      -0.321708        -8.7541
  64   1.0000      -0.318540        -8.6679
  65   1.0000      -0.317705        -8.6452
  66   1.0000      -0.315494        -8.5850
  67   1.0000      -0.314128        -8.5478
  68   1.0000      -0.312885        -8.5140
  69   1.0000      -0.309762        -8.4291
  70   1.0000      -0.309343        -8.4176
  71   1.0000      -0.299134        -8.1398
  72   1.0000      -0.296459        -8.0671
  73   1.0000      -0.295992        -8.0543
  74   1.0000      -0.294698        -8.0191
  75   1.0000      -0.291837        -7.9413
  76   1.0000      -0.289174        -7.8688
  77   1.0000      -0.280851        -7.6423
  78   1.0000      -0.278848        -7.5878
  79   1.0000      -0.274082        -7.4581
  80   1.0000      -0.273347        -7.4382
  81   1.0000      -0.271415        -7.3856
  82   1.0000      -0.271191        -7.3795
  83   1.0000      -0.266339        -7.2474
  84   1.0000      -0.263791        -7.1781
  85   1.0000      -0.263207        -7.1622
  86   1.0000      -0.261986        -7.1290
  87   1.0000      -0.260113        -7.0780
  88   1.0000      -0.257219        -6.9993
  89   1.0000      -0.254987        -6.9385
  90   1.0000      -0.254684        -6.9303
  91   1.0000      -0.252786        -6.8787
  92   1.0000      -0.252508        -6.8711
  93   1.0000      -0.246347        -6.7034
  94   1.0000      -0.245066        -6.6686
  95   1.0000      -0.242975        -6.6117
  96   1.0000      -0.242506        -6.5989
  97   1.0000      -0.240811        -6.5528
  98   1.0000      -0.238651        -6.4940
  99   1.0000      -0.235640        -6.4121
 100   1.0000      -0.235286        -6.4025
 101   1.0000      -0.233410        -6.3514
 102   1.0000      -0.233099        -6.3429
 103   1.0000      -0.207197        -5.6381
 104   1.0000      -0.204581        -5.5669
 105   1.0000      -0.204213        -5.5569
 106   1.0000      -0.203712        -5.5433
 107   1.0000      -0.201682        -5.4880
 108   0.0000      -0.161366        -4.3910
 109   0.0000      -0.157205        -4.2778
 110   0.0000      -0.155251        -4.2246
 111   0.0000      -0.144175        -3.9232
 112   0.0000      -0.138572        -3.7707

                 SPIN DOWN ORBITALS
  NO   OCC          E(Eh)            E(eV)
   0   1.0000    -214.500149     -5836.8458
   1   1.0000     -24.260783      -660.1695
   2   1.0000     -20.637556      -561.5765
   3   1.0000     -20.634242      -561.4863
   4   1.0000     -20.631410      -561.4092
   5   1.0000      -4.022592      -109.4603
   6   1.0000      -4.022546      -109.4590
   7   1.0000      -4.021622      -109.4339
   8   1.0000      -4.021597      -109.4332
   9   1.0000      -4.015780      -109.2749
  10   1.0000      -4.015775      -109.2748
  11   1.0000      -4.015762      -109.2744
  12   1.0000      -4.015755      -109.2743
  13   1.0000      -4.011129      -109.1484
  14   1.0000      -4.010992      -109.1446
  15   1.0000      -2.685865       -73.0861
  16   1.0000      -2.238757       -60.9197
  17   1.0000      -2.238484       -60.9122
  18   1.0000      -2.237891       -60.8961
  19   1.0000      -2.237836       -60.8946
  20   1.0000      -2.235731       -60.8373
  21   1.0000      -2.235387       -60.8280
  22   1.0000      -2.235245       -60.8241
  23   1.0000      -2.234456       -60.8026
  24   1.0000      -2.234389       -60.8008
  25   1.0000      -2.233342       -60.7723
  26   1.0000      -2.233076       -60.7651
  27   1.0000      -2.232502       -60.7495
  28   1.0000      -2.232340       -60.7451
  29   1.0000      -2.232185       -60.7409
  30   1.0000      -2.232039       -60.7369
  31   1.0000      -2.231832       -60.7312
  32   1.0000      -2.229546       -60.6690
  33   1.0000      -2.229243       -60.6608
  34   1.0000      -2.228373       -60.6371
  35   1.0000      -2.228303       -60.6352
  36   1.0000      -2.227974       -60.6262
  37   1.0000      -2.227139       -60.6035
  38   1.0000      -2.224913       -60.5430
  39   1.0000      -2.224865       -60.5417
  40   1.0000      -2.224641       -60.5356
  41   1.0000      -2.224636       -60.5354
  42   1.0000      -2.224026       -60.5188
  43   1.0000      -2.221377       -60.4467
  44   1.0000      -2.220334       -60.4183
  45   1.0000      -2.220043       -60.4105
  46   1.0000      -1.684730       -45.8438
  47   1.0000      -1.677007       -45.6337
  48   1.0000      -1.669140       -45.4196
  49   1.0000      -0.408542       -11.1170
  50   1.0000      -0.366999        -9.9866
  51   1.0000      -0.364833        -9.9276
  52   1.0000      -0.360109        -9.7991
  53   1.0000      -0.354770        -9.6538
  54   1.0000      -0.348292        -9.4775
  55   1.0000      -0.347304        -9.4506
  56   1.0000      -0.339948        -9.2504
  57   1.0000      -0.336522        -9.1572
  58   1.0000      -0.335197        -9.1212
  59   1.0000      -0.330250        -8.9866
  60   1.0000      -0.325951        -8.8696
  61   1.0000      -0.325141        -8.8475
  62   1.0000      -0.321345        -8.7442
  63   1.0000      -0.320932        -8.7330
  64   1.0000      -0.318068        -8.6551
  65   1.0000      -0.317807        -8.6480
  66   1.0000      -0.314563        -8.5597
  67   1.0000      -0.313821        -8.5395
  68   1.0000      -0.313254        -8.5241
  69   1.0000      -0.310713        -8.4549
  70   1.0000      -0.306789        -8.3481
  71   1.0000      -0.299875        -8.1600
  72   1.0000      -0.295168        -8.0319
  73   1.0000      -0.294480        -8.0132
  74   1.0000      -0.293636        -7.9902
  75   1.0000      -0.289224        -7.8702
  76   1.0000      -0.288953        -7.8628
  77   1.0000      -0.281693        -7.6653
  78   1.0000      -0.279818        -7.6142
  79   1.0000      -0.273905        -7.4533
  80   1.0000      -0.272772        -7.4225
  81   1.0000      -0.272210        -7.4072
  82   1.0000      -0.271299        -7.3824
  83   1.0000      -0.265999        -7.2382
  84   1.0000      -0.265440        -7.2230
  85   1.0000      -0.264205        -7.1894
  86   1.0000      -0.262224        -7.1355
  87   1.0000      -0.260880        -7.0989
  88   1.0000      -0.258355        -7.0302
  89   1.0000      -0.256009        -6.9664
  90   1.0000      -0.255800        -6.9607
  91   1.0000      -0.253285        -6.8922
  92   1.0000      -0.253257        -6.8915
  93   1.0000      -0.246922        -6.7191
  94   1.0000      -0.245464        -6.6794
  95   1.0000      -0.244111        -6.6426
  96   1.0000      -0.243337        -6.6215
  97   1.0000      -0.241802        -6.5798
  98   1.0000      -0.239333        -6.5126
  99   1.0000      -0.237482        -6.4622
 100   1.0000      -0.236021        -6.4225
 101   1.0000      -0.235484        -6.4079
 102   1.0000      -0.233288        -6.3481
 103   1.0000      -0.191548        -5.2123
 104   1.0000      -0.190379        -5.1805
 105   1.0000      -0.183078        -4.9818
 106   0.0000      -0.157994        -4.2992
 107   0.0000      -0.150574        -4.0973
 108   0.0000      -0.111935        -3.0459
 109   0.0000      -0.111408        -3.0316
 110   0.0000      -0.109406        -2.9771

MULLIKEN ATOMIC CHARGES AND SPIN POPULATIONS
--------------------------------------------
   0 Au:    0.306673   -0.096782
   1 Au:    0.436046   -0.064525
   2 Au:    0.551503   -0.082964
   3 Au:    0.436134   -0.064566
   4 Au:    0.306474   -0.096830
   5 Au:    0.344064    0.003048
   6 Au:    0.436133   -0.064356
   7 Au:    0.344089    0.003425
   8 Au:    0.551354   -0.083042
   9 Au:    0.436581   -0.064507
  10 Cr:   -4.149051    2.611099
Sum of atomic charges         :   -0.0000000

LOEWDIN ATOMIC CHARGES AND SPIN POPULATIONS
-------------------------------------------
   0 Au:    0.121516   -0.120290
   1 Au:    0.135449   -0.078873
   2 Au:    0.084778   -0.100716
   3 Au:    0.135397   -0.078995
   4 Au:    0.121503   -0.120331
   5 Au:    0.118748   -0.032039
   6 Au:    0.135508   -0.078806
   7 Au:    0.118876   -0.031684
   8 Au:    0.084680   -0.100783
   9 Au:    0.135475   -0.078936
  10 Cr:   -1.191929    2.821454

  Mayer bond orders larger than 0.100000
B(  0-Au,  1-Au) :   0.2283 B(  0-Au,  4-Au) :   0.3006 B(  0-Au,  6-Au) :   0.2287
B(  0-Au, 10-Cr) :   0.7433 B(  1-Au,  2-Au) :   0.1570 B(  1-Au,  5-Au) :   0.2885
B(  1-Au, 10-Cr) :   0.7773 B(  2-Au,  5-Au) :   0.2274 B(  2-Au,  6-Au) :   0.1561
B(  2-Au,  7-Au) :   0.2271 B(  2-Au,  8-Au) :   0.1204 B(  2-Au, 10-Cr) :   0.7105
B(  3-Au,  4-Au) :   0.2285 B(  3-Au,  5-Au) :   0.2889 B(  3-Au,  8-Au) :   0.1565
B(  3-Au, 10-Cr) :   0.7771 B(  4-Au,  9-Au) :   0.2285 B(  4-Au, 10-Cr) :   0.7431
B(  5-Au,  8-Au) :   0.2274 B(  5-Au, 10-Cr) :   0.4211 B(  6-Au,  7-Au) :   0.2892
B(  6-Au, 10-Cr) :   0.7770 B(  7-Au,  8-Au) :   0.2267 B(  7-Au,  9-Au) :   0.2881
B(  7-Au, 10-Cr) :   0.4220 B(  8-Au,  9-Au) :   0.1571 B(  8-Au, 10-Cr) :   0.7107
B(  9-Au, 10-Cr) :   0.7768

FINAL SINGLE POINT ENERGY     -2402.485207270509

DIPOLE MOMENT
-------------
                                X             Y             Z
Electronic contribution:     -8.45213      -7.18702      -0.43646
Nuclear contribution   :      8.32648       7.08014       0.43050
                        -----------------------------------------
Total Dipole Moment    :     -0.12565      -0.10689      -0.00596
                        -----------------------------------------
Magnitude (a.u.)       :      0.16507
Magnitude (Debye)      :      0.41957

Rotational constants in cm-1:     0.001901     0.001826     0.001649
Rotational constants in MHz :    56.999928    54.733088    49.433575

                             ****ORCA TERMINATED NORMALLY****
TOTAL RUN TIME: 0 days 2 hours 47 minutes 43 seconds 124 msec
