                         Program Version 5.0.3 -  RELEASE  -
|  1> %pal nprocs 1 end
|  2>
|  3> !PBE def2-TZVP OPT UNO
|  4> !SLOWCONV
|  5>
|  6> *xyzfile 0 4 5.xyz                           ****END OF INPUT****
 Total Charge           Charge          ....    0
 Multiplicity           Mult            ....    4
 Number of Electrons    NEL             ....  311
FINAL SINGLE POINT ENERGY     -3300.902845472424   (Wavefunction not fully converged!)
FINAL SINGLE POINT ENERGY     -3300.906664094677
FINAL SINGLE POINT ENERGY     -3300.908377123936
FINAL SINGLE POINT ENERGY     -3300.909291548369
FINAL SINGLE POINT ENERGY     -3300.909589334420
FINAL SINGLE POINT ENERGY     -3300.909707969577
FINAL SINGLE POINT ENERGY     -3300.909815798859
FINAL SINGLE POINT ENERGY     -3300.909905644574
FINAL SINGLE POINT ENERGY     -3300.909933453679
FINAL SINGLE POINT ENERGY     -3300.909958531828
FINAL SINGLE POINT ENERGY     -3300.909983555394
FINAL SINGLE POINT ENERGY     -3300.909998866203
FINAL SINGLE POINT ENERGY     -3300.910013901618
FINAL SINGLE POINT ENERGY     -3300.910026355832
FINAL SINGLE POINT ENERGY     -3300.910034031276
FINAL SINGLE POINT ENERGY     -3300.910038218833
                    ***********************HURRAY********************

CARTESIAN COORDINATES (ANGSTROEM)
---------------------------------
  Au     9.393792    8.594899    5.663966
  Au     6.689594    8.363680    5.263211
  Au     9.875030    9.915016    8.246371
  Au    10.426553    7.124113    7.725011
  Au     7.626194   10.555783    6.721152
  Au     5.358163    9.074777    7.625124
  Au     7.965987    5.918164    6.444515
  Au     5.107474    6.522684    6.449218
  Au     4.135947    6.900846    9.071385
  Au     6.141042    5.038857    8.512120
  Au     4.831756    9.330720   10.319034
  Au     7.350169   10.183347    9.525243
  Au     8.677379    5.633161    9.245126
  Au     9.308183    8.133007   10.287629
  Au     6.658057    7.234827   10.283871
  Fe     7.890111    8.063494    7.910623

 Multiplicity           Mult            ....    4
 Number of Electrons    NEL             ....  311
 Basis Dimension        Dim             ....  645

ORBITAL ENERGIES
----------------
                 SPIN UP ORBITALS
  NO   OCC          E(Eh)            E(eV)
   0   1.0000    -254.756273     -6932.2706
   1   1.0000     -29.592379      -805.2496
   2   1.0000     -25.535472      -694.8555
   3   1.0000     -25.530052      -694.7080
   4   1.0000     -25.517912      -694.3777
   5   1.0000      -4.038408      -109.8907
   6   1.0000      -4.034692      -109.7896
   7   1.0000      -4.033774      -109.7646
   8   1.0000      -4.033752      -109.7640
   9   1.0000      -4.032662      -109.7343
  10   1.0000      -4.031864      -109.7126
  11   1.0000      -4.031649      -109.7068
  12   1.0000      -4.030474      -109.6748
  13   1.0000      -4.030083      -109.6641
  14   1.0000      -4.029464      -109.6473
  15   1.0000      -4.027526      -109.5946
  16   1.0000      -4.026557      -109.5682
  17   1.0000      -4.021794      -109.4386
  18   1.0000      -4.020072      -109.3917
  19   1.0000      -4.018428      -109.3470
  20   1.0000      -3.372098       -91.7595
  21   1.0000      -2.254581       -61.3503
  22   1.0000      -2.251668       -61.2710
  23   1.0000      -2.251142       -61.2567
  24   1.0000      -2.250270       -61.2329
  25   1.0000      -2.249958       -61.2245
  26   1.0000      -2.248788       -61.1926
  27   1.0000      -2.248552       -61.1862
  28   1.0000      -2.248298       -61.1793
  29   1.0000      -2.247330       -61.1530
  30   1.0000      -2.246990       -61.1437
  31   1.0000      -2.246454       -61.1291
  32   1.0000      -2.246286       -61.1245
  33   1.0000      -2.246065       -61.1185
  34   1.0000      -2.245908       -61.1143
  35   1.0000      -2.245541       -61.1043
  36   1.0000      -2.244969       -61.0887
  37   1.0000      -2.244387       -61.0729
  38   1.0000      -2.244054       -61.0638
  39   1.0000      -2.243904       -61.0597
  40   1.0000      -2.243718       -61.0547
  41   1.0000      -2.243564       -61.0505
  42   1.0000      -2.243373       -61.0453
  43   1.0000      -2.242908       -61.0326
  44   1.0000      -2.242685       -61.0266
  45   1.0000      -2.242611       -61.0245
  46   1.0000      -2.242193       -61.0132
  47   1.0000      -2.242048       -61.0092
  48   1.0000      -2.241279       -60.9883
  49   1.0000      -2.240891       -60.9777
  50   1.0000      -2.240671       -60.9718
  51   1.0000      -2.240542       -60.9682
  52   1.0000      -2.240504       -60.9672
  53   1.0000      -2.239414       -60.9376
  54   1.0000      -2.239145       -60.9302
  55   1.0000      -2.238348       -60.9085
  56   1.0000      -2.237903       -60.8964
  57   1.0000      -2.237850       -60.8950
  58   1.0000      -2.235872       -60.8412
  59   1.0000      -2.234804       -60.8121
  60   1.0000      -2.233178       -60.7679
  61   1.0000      -2.232564       -60.7512
  62   1.0000      -2.231591       -60.7247
  63   1.0000      -2.230337       -60.6906
  64   1.0000      -2.229522       -60.6684
  65   1.0000      -2.229324       -60.6630
  66   1.0000      -2.201576       -59.9079
  67   1.0000      -2.190760       -59.6136
  68   1.0000      -2.165574       -58.9283
  69   1.0000      -0.441376       -12.0104
  70   1.0000      -0.396393       -10.7864
  71   1.0000      -0.394879       -10.7452
  72   1.0000      -0.388174       -10.5627
  73   1.0000      -0.379312       -10.3216
  74   1.0000      -0.377850       -10.2818
  75   1.0000      -0.376644       -10.2490
  76   1.0000      -0.373570       -10.1654
  77   1.0000      -0.372329       -10.1316
  78   1.0000      -0.368075       -10.0158
  79   1.0000      -0.364030        -9.9058
  80   1.0000      -0.360348        -9.8056
  81   1.0000      -0.358842        -9.7646
  82   1.0000      -0.355937        -9.6855
  83   1.0000      -0.353690        -9.6244
  84   1.0000      -0.350703        -9.5431
  85   1.0000      -0.350253        -9.5309
  86   1.0000      -0.348579        -9.4853
  87   1.0000      -0.346986        -9.4420
  88   1.0000      -0.346381        -9.4255
  89   1.0000      -0.345439        -9.3999
  90   1.0000      -0.342865        -9.3298
  91   1.0000      -0.342324        -9.3151
  92   1.0000      -0.341269        -9.2864
  93   1.0000      -0.338254        -9.2044
  94   1.0000      -0.333855        -9.0847
  95   1.0000      -0.332245        -9.0409
  96   1.0000      -0.327686        -8.9168
  97   1.0000      -0.326991        -8.8979
  98   1.0000      -0.324108        -8.8194
  99   1.0000      -0.322044        -8.7633
 100   1.0000      -0.319524        -8.6947
 101   1.0000      -0.318562        -8.6685
 102   1.0000      -0.315523        -8.5858
 103   1.0000      -0.311060        -8.4644
 104   1.0000      -0.308542        -8.3958
 105   1.0000      -0.306894        -8.3510
 106   1.0000      -0.304602        -8.2886
 107   1.0000      -0.303239        -8.2516
 108   1.0000      -0.301150        -8.1947
 109   1.0000      -0.297357        -8.0915
 110   1.0000      -0.296995        -8.0816
 111   1.0000      -0.295441        -8.0393
 112   1.0000      -0.291257        -7.9255
 113   1.0000      -0.290104        -7.8941
 114   1.0000      -0.287301        -7.8178
 115   1.0000      -0.285636        -7.7725
 116   1.0000      -0.282401        -7.6845
 117   1.0000      -0.280884        -7.6433
 118   1.0000      -0.280133        -7.6228
 119   1.0000      -0.279299        -7.6001
 120   1.0000      -0.277005        -7.5377
 121   1.0000      -0.275897        -7.5075
 122   1.0000      -0.274480        -7.4690
 123   1.0000      -0.272521        -7.4157
 124   1.0000      -0.270689        -7.3658
 125   1.0000      -0.269822        -7.3422
 126   1.0000      -0.269499        -7.3334
 127   1.0000      -0.267708        -7.2847
 128   1.0000      -0.266825        -7.2607
 129   1.0000      -0.264432        -7.1956
 130   1.0000      -0.263785        -7.1779
 131   1.0000      -0.260980        -7.1016
 132   1.0000      -0.260666        -7.0931
 133   1.0000      -0.259619        -7.0646
 134   1.0000      -0.257887        -7.0175
 135   1.0000      -0.257428        -7.0050
 136   1.0000      -0.256484        -6.9793
 137   1.0000      -0.255842        -6.9618
 138   1.0000      -0.254884        -6.9357
 139   1.0000      -0.253827        -6.9070
 140   1.0000      -0.253044        -6.8857
 141   1.0000      -0.252089        -6.8597
 142   1.0000      -0.251317        -6.8387
 143   1.0000      -0.250157        -6.8071
 144   1.0000      -0.247703        -6.7403
 145   1.0000      -0.245751        -6.6872
 146   1.0000      -0.245052        -6.6682
 147   1.0000      -0.243589        -6.6284
 148   1.0000      -0.242516        -6.5992
 149   1.0000      -0.241752        -6.5784
 150   1.0000      -0.239333        -6.5126
 151   1.0000      -0.237980        -6.4758
 152   1.0000      -0.236803        -6.4437
 153   1.0000      -0.215940        -5.8760
 154   1.0000      -0.213152        -5.8002
 155   1.0000      -0.205375        -5.5885
 156   1.0000      -0.197437        -5.3725
 157   0.0000      -0.189046        -5.1442
 158   0.0000      -0.152826        -4.1586
 159   0.0000      -0.139288        -3.7902
 160   0.0000      -0.133641        -3.6366
 161   0.0000      -0.123969        -3.3734

                 SPIN DOWN ORBITALS
  NO   OCC          E(Eh)            E(eV)
   0   1.0000    -254.755614     -6932.2527
   1   1.0000     -29.534395      -803.6718
   2   1.0000     -25.488298      -693.5719
   3   1.0000     -25.485331      -693.4911
   4   1.0000     -25.478497      -693.3052
   5   1.0000      -4.038461      -109.8921
   6   1.0000      -4.034724      -109.7904
   7   1.0000      -4.033661      -109.7615
   8   1.0000      -4.033164      -109.7480
   9   1.0000      -4.032803      -109.7382
  10   1.0000      -4.031487      -109.7023
  11   1.0000      -4.030723      -109.6816
  12   1.0000      -4.030224      -109.6680
  13   1.0000      -4.029907      -109.6593
  14   1.0000      -4.029419      -109.6461
  15   1.0000      -4.027521      -109.5944
  16   1.0000      -4.027515      -109.5943
  17   1.0000      -4.022043      -109.4454
  18   1.0000      -4.020225      -109.3959
  19   1.0000      -4.018633      -109.3526
  20   1.0000      -3.240382       -88.1753
  21   1.0000      -2.254626       -61.3515
  22   1.0000      -2.251656       -61.2707
  23   1.0000      -2.251103       -61.2556
  24   1.0000      -2.250371       -61.2357
  25   1.0000      -2.249084       -61.2007
  26   1.0000      -2.248805       -61.1931
  27   1.0000      -2.248520       -61.1853
  28   1.0000      -2.247310       -61.1524
  29   1.0000      -2.246691       -61.1356
  30   1.0000      -2.246620       -61.1337
  31   1.0000      -2.246521       -61.1310
  32   1.0000      -2.245891       -61.1138
  33   1.0000      -2.245658       -61.1075
  34   1.0000      -2.245590       -61.1056
  35   1.0000      -2.245004       -61.0897
  36   1.0000      -2.244751       -61.0828
  37   1.0000      -2.244348       -61.0718
  38   1.0000      -2.243963       -61.0613
  39   1.0000      -2.243754       -61.0557
  40   1.0000      -2.243549       -61.0501
  41   1.0000      -2.243506       -61.0489
  42   1.0000      -2.242824       -61.0303
  43   1.0000      -2.242679       -61.0264
  44   1.0000      -2.242440       -61.0199
  45   1.0000      -2.242080       -61.0101
  46   1.0000      -2.241937       -61.0062
  47   1.0000      -2.241780       -61.0019
  48   1.0000      -2.241531       -60.9952
  49   1.0000      -2.241168       -60.9853
  50   1.0000      -2.240935       -60.9789
  51   1.0000      -2.240622       -60.9704
  52   1.0000      -2.240155       -60.9577
  53   1.0000      -2.239563       -60.9416
  54   1.0000      -2.239382       -60.9367
  55   1.0000      -2.239109       -60.9293
  56   1.0000      -2.238533       -60.9136
  57   1.0000      -2.238134       -60.9027
  58   1.0000      -2.236171       -60.8493
  59   1.0000      -2.235180       -60.8224
  60   1.0000      -2.233423       -60.7745
  61   1.0000      -2.232799       -60.7576
  62   1.0000      -2.231734       -60.7286
  63   1.0000      -2.230518       -60.6955
  64   1.0000      -2.229749       -60.6746
  65   1.0000      -2.229441       -60.6662
  66   1.0000      -2.062712       -56.1292
  67   1.0000      -2.059867       -56.0518
  68   1.0000      -2.048498       -55.7425
  69   1.0000      -0.437486       -11.9046
  70   1.0000      -0.396082       -10.7779
  71   1.0000      -0.394869       -10.7449
  72   1.0000      -0.386837       -10.5264
  73   1.0000      -0.374423       -10.1886
  74   1.0000      -0.372039       -10.1237
  75   1.0000      -0.371341       -10.1047
  76   1.0000      -0.368891       -10.0380
  77   1.0000      -0.367483        -9.9997
  78   1.0000      -0.366385        -9.9698
  79   1.0000      -0.361903        -9.8479
  80   1.0000      -0.359132        -9.7725
  81   1.0000      -0.357964        -9.7407
  82   1.0000      -0.354342        -9.6421
  83   1.0000      -0.353080        -9.6078
  84   1.0000      -0.350722        -9.5436
  85   1.0000      -0.349740        -9.5169
  86   1.0000      -0.347554        -9.4574
  87   1.0000      -0.345843        -9.4109
  88   1.0000      -0.344581        -9.3765
  89   1.0000      -0.344043        -9.3619
  90   1.0000      -0.342546        -9.3211
  91   1.0000      -0.342020        -9.3068
  92   1.0000      -0.340562        -9.2672
  93   1.0000      -0.338214        -9.2033
  94   1.0000      -0.332659        -9.0521
  95   1.0000      -0.331553        -9.0220
  96   1.0000      -0.327013        -8.8985
  97   1.0000      -0.326147        -8.8749
  98   1.0000      -0.322048        -8.7634
  99   1.0000      -0.321543        -8.7496
 100   1.0000      -0.318292        -8.6612
 101   1.0000      -0.313356        -8.5268
 102   1.0000      -0.313070        -8.5191
 103   1.0000      -0.307991        -8.3809
 104   1.0000      -0.307332        -8.3629
 105   1.0000      -0.304729        -8.2921
 106   1.0000      -0.301276        -8.1981
 107   1.0000      -0.299068        -8.1380
 108   1.0000      -0.296633        -8.0718
 109   1.0000      -0.295290        -8.0353
 110   1.0000      -0.293782        -7.9942
 111   1.0000      -0.290538        -7.9059
 112   1.0000      -0.287726        -7.8294
 113   1.0000      -0.286100        -7.7852
 114   1.0000      -0.285114        -7.7584
 115   1.0000      -0.282540        -7.6883
 116   1.0000      -0.280751        -7.6396
 117   1.0000      -0.279692        -7.6108
 118   1.0000      -0.278654        -7.5826
 119   1.0000      -0.276739        -7.5304
 120   1.0000      -0.276002        -7.5104
 121   1.0000      -0.274802        -7.4777
 122   1.0000      -0.273865        -7.4522
 123   1.0000      -0.272201        -7.4070
 124   1.0000      -0.270410        -7.3582
 125   1.0000      -0.269371        -7.3300
 126   1.0000      -0.269348        -7.3293
 127   1.0000      -0.267168        -7.2700
 128   1.0000      -0.266434        -7.2500
 129   1.0000      -0.263702        -7.1757
 130   1.0000      -0.262091        -7.1319
 131   1.0000      -0.261006        -7.1023
 132   1.0000      -0.258193        -7.0258
 133   1.0000      -0.257874        -7.0171
 134   1.0000      -0.256696        -6.9850
 135   1.0000      -0.255631        -6.9561
 136   1.0000      -0.253863        -6.9080
 137   1.0000      -0.253195        -6.8898
 138   1.0000      -0.252777        -6.8784
 139   1.0000      -0.250291        -6.8108
 140   1.0000      -0.247916        -6.7461
 141   1.0000      -0.246203        -6.6995
 142   1.0000      -0.245867        -6.6904
 143   1.0000      -0.245230        -6.6731
 144   1.0000      -0.243667        -6.6305
 145   1.0000      -0.242036        -6.5861
 146   1.0000      -0.240263        -6.5379
 147   1.0000      -0.237481        -6.4622
 148   1.0000      -0.224215        -6.1012
 149   1.0000      -0.218113        -5.9352
 150   1.0000      -0.212065        -5.7706
 151   1.0000      -0.209894        -5.7115
 152   1.0000      -0.203347        -5.5333
 153   1.0000      -0.176253        -4.7961
 154   0.0000      -0.162669        -4.4265
 155   0.0000      -0.162031        -4.4091
 156   0.0000      -0.157525        -4.2865
 157   0.0000      -0.147186        -4.0051
 158   0.0000      -0.146822        -3.9952

MULLIKEN ATOMIC CHARGES AND SPIN POPULATIONS
--------------------------------------------
   0 Au:    0.291161   -0.033696
   1 Au:    0.224184   -0.006260
   2 Au:    0.341016    0.035936
   3 Au:    0.297658   -0.056210
   4 Au:    0.343457    0.006751
   5 Au:   -0.271001   -0.100553
   6 Au:    0.134827    0.102148
   7 Au:    0.115214    0.039495
   8 Au:    0.225961   -0.046686
   9 Au:    0.140092    0.055999
  10 Au:    0.401687   -0.044132
  11 Au:    0.075034    0.069633
  12 Au:    0.241814   -0.044004
  13 Au:    0.331319    0.025292
  14 Au:   -0.279462   -0.020580
  15 Fe:   -2.612962    3.016868
Sum of atomic charges         :   -0.0000000

LOEWDIN ATOMIC CHARGES AND SPIN POPULATIONS
-------------------------------------------
   0 Au:    0.062786   -0.027451
   1 Au:    0.052122   -0.027457
   2 Au:    0.059300    0.018334
   3 Au:    0.073308   -0.042491
   4 Au:    0.074128   -0.003222
   5 Au:   -0.031467   -0.043312
   6 Au:    0.070166    0.045472
   7 Au:    0.005439    0.013065
   8 Au:    0.006464   -0.028656
   9 Au:   -0.001436    0.038170
  10 Au:    0.112239   -0.059312
  11 Au:    0.028872    0.019890
  12 Au:    0.044983   -0.020602
  13 Au:    0.084611   -0.008450
  14 Au:   -0.040963   -0.013845
  15 Fe:   -0.600552    3.139867

  Mayer bond orders larger than 0.100000
B(  0-Au,  1-Au) :   0.2632 B(  0-Au,  2-Au) :   0.1440 B(  0-Au,  3-Au) :   0.2648
B(  0-Au,  4-Au) :   0.1975 B(  0-Au, 15-Fe) :   0.4024 B(  1-Au,  4-Au) :   0.1859
B(  1-Au,  5-Au) :   0.3072 B(  1-Au,  7-Au) :   0.3236 B(  1-Au, 15-Fe) :   0.3788
B(  2-Au,  3-Au) :   0.1679 B(  2-Au,  4-Au) :   0.1986 B(  2-Au, 11-Au) :   0.2019
B(  2-Au, 13-Au) :   0.2196 B(  2-Au, 15-Fe) :   0.4068 B(  3-Au,  6-Au) :   0.1345
B(  3-Au, 12-Au) :   0.2366 B(  3-Au, 13-Au) :   0.1275 B(  3-Au, 15-Fe) :   0.4328
B(  4-Au,  5-Au) :   0.1965 B(  4-Au, 11-Au) :   0.1620 B(  4-Au, 15-Fe) :   0.4295
B(  5-Au,  7-Au) :   0.2915 B(  5-Au,  8-Au) :   0.2437 B(  5-Au, 10-Au) :   0.3311
B(  5-Au, 11-Au) :   0.1874 B(  5-Au, 14-Au) :   0.1485 B(  5-Au, 15-Fe) :   0.4473
B(  6-Au,  7-Au) :   0.1988 B(  6-Au,  9-Au) :   0.2255 B(  6-Au, 12-Au) :   0.1371
B(  6-Au, 15-Fe) :   0.6006 B(  7-Au,  8-Au) :   0.2532 B(  7-Au,  9-Au) :   0.2618
B(  7-Au, 15-Fe) :   0.2104 B(  8-Au,  9-Au) :   0.2639 B(  8-Au, 10-Au) :   0.2523
B(  8-Au, 14-Au) :   0.2997 B(  9-Au, 12-Au) :   0.3196 B(  9-Au, 14-Au) :   0.2554
B(  9-Au, 15-Fe) :   0.1983 B( 10-Au, 11-Au) :   0.3105 B( 10-Au, 14-Au) :   0.2812
B( 11-Au, 14-Au) :   0.1308 B( 11-Au, 15-Fe) :   0.4863 B( 12-Au, 13-Au) :   0.1976
B( 12-Au, 14-Au) :   0.3129 B( 12-Au, 15-Fe) :   0.3806 B( 13-Au, 14-Au) :   0.2548
B( 13-Au, 15-Fe) :   0.4545 B( 14-Au, 15-Fe) :   0.4213

FINAL SINGLE POINT ENERGY     -3300.910040610361

DIPOLE MOMENT
-------------
                                X             Y             Z
Electronic contribution:    -22.28048      -5.93989       6.99506
Nuclear contribution   :     22.44408       6.18940      -6.94152
                        -----------------------------------------
Total Dipole Moment    :      0.16360       0.24951       0.05354
                        -----------------------------------------
Magnitude (a.u.)       :      0.30313
Magnitude (Debye)      :      0.77050

Rotational constants in cm-1:     0.001085     0.000895     0.000867
Rotational constants in MHz :    32.536503    26.840238    26.003901

                             ****ORCA TERMINATED NORMALLY****
TOTAL RUN TIME: 0 days 9 hours 6 minutes 43 seconds 675 msec
