                         Program Version 5.0.3 -  RELEASE  -
|  1> %pal nprocs 1 end
|  2>
|  3> !PBE def2-TZVP OPT UNO
|  4> !SLOWCONV
|  5>
|  6> *xyzfile 0 5 8.xyz                           ****END OF INPUT****
 Total Charge           Charge          ....    0
 Multiplicity           Mult            ....    5
 Number of Electrons    NEL             ....  330
FINAL SINGLE POINT ENERGY     -3436.756860556386
FINAL SINGLE POINT ENERGY     -3436.759828635043
FINAL SINGLE POINT ENERGY     -3436.760038027199
FINAL SINGLE POINT ENERGY     -3436.760338241316
FINAL SINGLE POINT ENERGY     -3436.760690317064
FINAL SINGLE POINT ENERGY     -3436.761064154628
FINAL SINGLE POINT ENERGY     -3436.761312561326
FINAL SINGLE POINT ENERGY     -3436.761470426583
FINAL SINGLE POINT ENERGY     -3436.761602837463
FINAL SINGLE POINT ENERGY     -3436.761657099965
FINAL SINGLE POINT ENERGY     -3436.761680818393
FINAL SINGLE POINT ENERGY     -3436.761691573952
FINAL SINGLE POINT ENERGY     -3436.761696397803
                    ***********************HURRAY********************

CARTESIAN COORDINATES (ANGSTROEM)
---------------------------------
  Au     8.040673    9.971240    8.208794
  Au     7.242951    8.646474   10.504296
  Au     9.162803    7.494259    8.888051
  Au     7.429312    7.216054    5.206956
  Au     9.657737    8.567738    6.294551
  Au     9.404847    5.844431    6.632395
  Au     7.461598   10.006177    5.478126
  Au     5.389475   10.074499    7.364336
  Au     7.056835    4.537442    6.008357
  Au     4.888490    6.024413    5.203902
  Au     4.994631    5.249759    7.882118
  Au     5.737052    6.297467   10.336036
  Au     7.665285    5.161147    8.720121
  Au     3.855524    7.697778    7.203423
  Au     4.587888    8.747556    9.655998
  Au     5.093107    8.747112    4.860716
  Fe     6.504390    7.622455    8.002474

 Multiplicity           Mult            ....    5
 Number of Electrons    NEL             ....  330
 Basis Dimension        Dim             ....  685

ORBITAL ENERGIES
----------------
                 SPIN UP ORBITALS
  NO   OCC          E(Eh)            E(eV)
   0   1.0000    -254.764216     -6932.4867
   1   1.0000     -29.598700      -805.4216
   2   1.0000     -25.549881      -695.2476
   3   1.0000     -25.526332      -694.6068
   4   1.0000     -25.525597      -694.5868
   5   1.0000      -4.040818      -109.9562
   6   1.0000      -4.037284      -109.8601
   7   1.0000      -4.037148      -109.8564
   8   1.0000      -4.035754      -109.8184
   9   1.0000      -4.035567      -109.8134
  10   1.0000      -4.033406      -109.7546
  11   1.0000      -4.033315      -109.7521
  12   1.0000      -4.029942      -109.6603
  13   1.0000      -4.029834      -109.6574
  14   1.0000      -4.029491      -109.6480
  15   1.0000      -4.029179      -109.6395
  16   1.0000      -4.027765      -109.6011
  17   1.0000      -4.027400      -109.5911
  18   1.0000      -4.026136      -109.5567
  19   1.0000      -4.023360      -109.4812
  20   1.0000      -4.023315      -109.4800
  21   1.0000      -3.381104       -92.0045
  22   1.0000      -2.255230       -61.3679
  23   1.0000      -2.254900       -61.3590
  24   1.0000      -2.253005       -61.3074
  25   1.0000      -2.251573       -61.2684
  26   1.0000      -2.251307       -61.2612
  27   1.0000      -2.251086       -61.2552
  28   1.0000      -2.251019       -61.2534
  29   1.0000      -2.250597       -61.2418
  30   1.0000      -2.250324       -61.2344
  31   1.0000      -2.249936       -61.2239
  32   1.0000      -2.249224       -61.2045
  33   1.0000      -2.248617       -61.1880
  34   1.0000      -2.248489       -61.1845
  35   1.0000      -2.247690       -61.1628
  36   1.0000      -2.247215       -61.1498
  37   1.0000      -2.246966       -61.1431
  38   1.0000      -2.246493       -61.1302
  39   1.0000      -2.246031       -61.1176
  40   1.0000      -2.245868       -61.1132
  41   1.0000      -2.245234       -61.0959
  42   1.0000      -2.245143       -61.0934
  43   1.0000      -2.244977       -61.0889
  44   1.0000      -2.244201       -61.0678
  45   1.0000      -2.244026       -61.0631
  46   1.0000      -2.243814       -61.0573
  47   1.0000      -2.243488       -61.0484
  48   1.0000      -2.242727       -61.0277
  49   1.0000      -2.242612       -61.0246
  50   1.0000      -2.242240       -61.0144
  51   1.0000      -2.241892       -61.0050
  52   1.0000      -2.241617       -60.9975
  53   1.0000      -2.240974       -60.9800
  54   1.0000      -2.240953       -60.9794
  55   1.0000      -2.240412       -60.9647
  56   1.0000      -2.240365       -60.9634
  57   1.0000      -2.240178       -60.9583
  58   1.0000      -2.239655       -60.9441
  59   1.0000      -2.238629       -60.9162
  60   1.0000      -2.238601       -60.9154
  61   1.0000      -2.238145       -60.9030
  62   1.0000      -2.237977       -60.8985
  63   1.0000      -2.237955       -60.8979
  64   1.0000      -2.237240       -60.8784
  65   1.0000      -2.236253       -60.8515
  66   1.0000      -2.236064       -60.8464
  67   1.0000      -2.235998       -60.8446
  68   1.0000      -2.233214       -60.7689
  69   1.0000      -2.233163       -60.7674
  70   1.0000      -2.226681       -60.5911
  71   1.0000      -2.179591       -59.3097
  72   1.0000      -2.178045       -59.2676
  73   1.0000      -0.436168       -11.8687
  74   1.0000      -0.397494       -10.8164
  75   1.0000      -0.392888       -10.6910
  76   1.0000      -0.391037       -10.6406
  77   1.0000      -0.378694       -10.3048
  78   1.0000      -0.377964       -10.2849
  79   1.0000      -0.376238       -10.2379
  80   1.0000      -0.373364       -10.1597
  81   1.0000      -0.372104       -10.1255
  82   1.0000      -0.370696       -10.0871
  83   1.0000      -0.366658        -9.9773
  84   1.0000      -0.365825        -9.9546
  85   1.0000      -0.365017        -9.9326
  86   1.0000      -0.362609        -9.8671
  87   1.0000      -0.359333        -9.7779
  88   1.0000      -0.356715        -9.7067
  89   1.0000      -0.356655        -9.7051
  90   1.0000      -0.355669        -9.6782
  91   1.0000      -0.353988        -9.6325
  92   1.0000      -0.353060        -9.6072
  93   1.0000      -0.352250        -9.5852
  94   1.0000      -0.350417        -9.5353
  95   1.0000      -0.349554        -9.5118
  96   1.0000      -0.346503        -9.4288
  97   1.0000      -0.344762        -9.3815
  98   1.0000      -0.341918        -9.3041
  99   1.0000      -0.332793        -9.0558
 100   1.0000      -0.331061        -9.0086
 101   1.0000      -0.330186        -8.9848
 102   1.0000      -0.328608        -8.9419
 103   1.0000      -0.327306        -8.9064
 104   1.0000      -0.327162        -8.9025
 105   1.0000      -0.324434        -8.8283
 106   1.0000      -0.323770        -8.8102
 107   1.0000      -0.320075        -8.7097
 108   1.0000      -0.318456        -8.6656
 109   1.0000      -0.315862        -8.5950
 110   1.0000      -0.313697        -8.5361
 111   1.0000      -0.312375        -8.5002
 112   1.0000      -0.310595        -8.4517
 113   1.0000      -0.309602        -8.4247
 114   1.0000      -0.308522        -8.3953
 115   1.0000      -0.306455        -8.3391
 116   1.0000      -0.305648        -8.3171
 117   1.0000      -0.303861        -8.2685
 118   1.0000      -0.298230        -8.1153
 119   1.0000      -0.295023        -8.0280
 120   1.0000      -0.293495        -7.9864
 121   1.0000      -0.291373        -7.9287
 122   1.0000      -0.289391        -7.8747
 123   1.0000      -0.288080        -7.8391
 124   1.0000      -0.284354        -7.7377
 125   1.0000      -0.282514        -7.6876
 126   1.0000      -0.279156        -7.5962
 127   1.0000      -0.278690        -7.5835
 128   1.0000      -0.277342        -7.5469
 129   1.0000      -0.274364        -7.4658
 130   1.0000      -0.274041        -7.4570
 131   1.0000      -0.272162        -7.4059
 132   1.0000      -0.271016        -7.3747
 133   1.0000      -0.267896        -7.2898
 134   1.0000      -0.267007        -7.2656
 135   1.0000      -0.266343        -7.2476
 136   1.0000      -0.265815        -7.2332
 137   1.0000      -0.265327        -7.2199
 138   1.0000      -0.264062        -7.1855
 139   1.0000      -0.263461        -7.1691
 140   1.0000      -0.261928        -7.1274
 141   1.0000      -0.261289        -7.1100
 142   1.0000      -0.260811        -7.0970
 143   1.0000      -0.259984        -7.0745
 144   1.0000      -0.258276        -7.0280
 145   1.0000      -0.258109        -7.0235
 146   1.0000      -0.257277        -7.0009
 147   1.0000      -0.255355        -6.9486
 148   1.0000      -0.255344        -6.9483
 149   1.0000      -0.254655        -6.9295
 150   1.0000      -0.252295        -6.8653
 151   1.0000      -0.250227        -6.8090
 152   1.0000      -0.249548        -6.7905
 153   1.0000      -0.249263        -6.7828
 154   1.0000      -0.248649        -6.7661
 155   1.0000      -0.247930        -6.7465
 156   1.0000      -0.246213        -6.6998
 157   1.0000      -0.244495        -6.6530
 158   1.0000      -0.243484        -6.6255
 159   1.0000      -0.242606        -6.6017
 160   1.0000      -0.241867        -6.5815
 161   1.0000      -0.231176        -6.2906
 162   1.0000      -0.221338        -6.0229
 163   1.0000      -0.219847        -5.9823
 164   1.0000      -0.211485        -5.7548
 165   1.0000      -0.210983        -5.7411
 166   1.0000      -0.208671        -5.6782
 167   0.0000      -0.161742        -4.4012
 168   0.0000      -0.137121        -3.7313
 169   0.0000      -0.136812        -3.7228
 170   0.0000      -0.130564        -3.5528
 171   0.0000      -0.127911        -3.4806

                 SPIN DOWN ORBITALS
  NO   OCC          E(Eh)            E(eV)
   0   1.0000    -254.763533     -6932.4682
   1   1.0000     -29.538421      -803.7813
   2   1.0000     -25.497600      -693.8250
   3   1.0000     -25.484004      -693.4550
   4   1.0000     -25.483725      -693.4474
   5   1.0000      -4.039989      -109.9337
   6   1.0000      -4.036386      -109.8356
   7   1.0000      -4.036254      -109.8321
   8   1.0000      -4.035048      -109.7992
   9   1.0000      -4.034872      -109.7944
  10   1.0000      -4.032811      -109.7384
  11   1.0000      -4.032724      -109.7360
  12   1.0000      -4.029877      -109.6585
  13   1.0000      -4.029770      -109.6556
  14   1.0000      -4.029430      -109.6464
  15   1.0000      -4.028488      -109.6207
  16   1.0000      -4.027267      -109.5875
  17   1.0000      -4.026941      -109.5786
  18   1.0000      -4.026039      -109.5541
  19   1.0000      -4.023328      -109.4803
  20   1.0000      -4.023284      -109.4791
  21   1.0000      -3.243199       -88.2519
  22   1.0000      -2.254397       -61.3453
  23   1.0000      -2.254070       -61.3364
  24   1.0000      -2.252047       -61.2813
  25   1.0000      -2.250874       -61.2494
  26   1.0000      -2.250446       -61.2378
  27   1.0000      -2.250260       -61.2327
  28   1.0000      -2.250045       -61.2268
  29   1.0000      -2.249503       -61.2121
  30   1.0000      -2.249250       -61.2052
  31   1.0000      -2.248989       -61.1981
  32   1.0000      -2.248429       -61.1829
  33   1.0000      -2.248069       -61.1731
  34   1.0000      -2.247917       -61.1689
  35   1.0000      -2.246913       -61.1416
  36   1.0000      -2.246422       -61.1282
  37   1.0000      -2.246309       -61.1252
  38   1.0000      -2.246065       -61.1185
  39   1.0000      -2.245615       -61.1063
  40   1.0000      -2.245488       -61.1028
  41   1.0000      -2.244800       -61.0841
  42   1.0000      -2.244534       -61.0769
  43   1.0000      -2.244414       -61.0736
  44   1.0000      -2.243652       -61.0529
  45   1.0000      -2.243501       -61.0488
  46   1.0000      -2.243306       -61.0435
  47   1.0000      -2.242641       -61.0254
  48   1.0000      -2.242534       -61.0225
  49   1.0000      -2.242381       -61.0183
  50   1.0000      -2.242142       -61.0118
  51   1.0000      -2.241310       -60.9892
  52   1.0000      -2.241097       -60.9834
  53   1.0000      -2.240820       -60.9758
  54   1.0000      -2.240310       -60.9619
  55   1.0000      -2.240175       -60.9583
  56   1.0000      -2.240047       -60.9548
  57   1.0000      -2.239794       -60.9479
  58   1.0000      -2.239565       -60.9417
  59   1.0000      -2.238538       -60.9137
  60   1.0000      -2.238095       -60.9017
  61   1.0000      -2.238038       -60.9001
  62   1.0000      -2.237927       -60.8971
  63   1.0000      -2.237547       -60.8868
  64   1.0000      -2.236881       -60.8686
  65   1.0000      -2.236138       -60.8484
  66   1.0000      -2.236023       -60.8453
  67   1.0000      -2.235953       -60.8434
  68   1.0000      -2.233191       -60.7682
  69   1.0000      -2.233139       -60.7668
  70   1.0000      -2.071187       -56.3599
  71   1.0000      -2.054368       -55.9022
  72   1.0000      -2.053880       -55.8889
  73   1.0000      -0.432149       -11.7594
  74   1.0000      -0.395906       -10.7731
  75   1.0000      -0.391608       -10.6562
  76   1.0000      -0.390341       -10.6217
  77   1.0000      -0.374282       -10.1847
  78   1.0000      -0.372093       -10.1252
  79   1.0000      -0.371544       -10.1102
  80   1.0000      -0.370063       -10.0699
  81   1.0000      -0.369202       -10.0465
  82   1.0000      -0.367563       -10.0019
  83   1.0000      -0.365092        -9.9347
  84   1.0000      -0.363288        -9.8856
  85   1.0000      -0.360166        -9.8006
  86   1.0000      -0.360085        -9.7984
  87   1.0000      -0.358892        -9.7659
  88   1.0000      -0.355028        -9.6608
  89   1.0000      -0.354825        -9.6553
  90   1.0000      -0.354785        -9.6542
  91   1.0000      -0.351284        -9.5589
  92   1.0000      -0.350039        -9.5250
  93   1.0000      -0.349468        -9.5095
  94   1.0000      -0.349136        -9.5005
  95   1.0000      -0.348728        -9.4894
  96   1.0000      -0.345449        -9.4001
  97   1.0000      -0.344065        -9.3625
  98   1.0000      -0.341545        -9.2939
  99   1.0000      -0.331258        -9.0140
 100   1.0000      -0.330669        -8.9980
 101   1.0000      -0.329796        -8.9742
 102   1.0000      -0.326753        -8.8914
 103   1.0000      -0.326725        -8.8906
 104   1.0000      -0.321837        -8.7576
 105   1.0000      -0.321670        -8.7531
 106   1.0000      -0.317332        -8.6350
 107   1.0000      -0.317053        -8.6274
 108   1.0000      -0.315550        -8.5866
 109   1.0000      -0.312014        -8.4903
 110   1.0000      -0.308555        -8.3962
 111   1.0000      -0.308227        -8.3873
 112   1.0000      -0.307236        -8.3603
 113   1.0000      -0.307012        -8.3542
 114   1.0000      -0.303262        -8.2522
 115   1.0000      -0.300225        -8.1695
 116   1.0000      -0.298506        -8.1228
 117   1.0000      -0.297235        -8.0882
 118   1.0000      -0.294558        -8.0153
 119   1.0000      -0.292415        -7.9570
 120   1.0000      -0.292143        -7.9496
 121   1.0000      -0.287027        -7.8104
 122   1.0000      -0.285402        -7.7662
 123   1.0000      -0.284776        -7.7491
 124   1.0000      -0.277551        -7.5525
 125   1.0000      -0.276061        -7.5120
 126   1.0000      -0.275849        -7.5062
 127   1.0000      -0.275619        -7.5000
 128   1.0000      -0.275241        -7.4897
 129   1.0000      -0.273681        -7.4472
 130   1.0000      -0.271053        -7.3757
 131   1.0000      -0.269974        -7.3464
 132   1.0000      -0.269358        -7.3296
 133   1.0000      -0.265810        -7.2331
 134   1.0000      -0.265516        -7.2251
 135   1.0000      -0.264524        -7.1981
 136   1.0000      -0.262684        -7.1480
 137   1.0000      -0.262416        -7.1407
 138   1.0000      -0.260889        -7.0991
 139   1.0000      -0.259643        -7.0652
 140   1.0000      -0.257596        -7.0095
 141   1.0000      -0.257513        -7.0073
 142   1.0000      -0.257283        -7.0010
 143   1.0000      -0.256103        -6.9689
 144   1.0000      -0.255638        -6.9563
 145   1.0000      -0.255332        -6.9479
 146   1.0000      -0.254190        -6.9169
 147   1.0000      -0.249602        -6.7920
 148   1.0000      -0.249249        -6.7824
 149   1.0000      -0.248846        -6.7715
 150   1.0000      -0.248299        -6.7566
 151   1.0000      -0.248199        -6.7538
 152   1.0000      -0.245849        -6.6899
 153   1.0000      -0.243502        -6.6260
 154   1.0000      -0.243274        -6.6198
 155   1.0000      -0.242281        -6.5928
 156   1.0000      -0.230783        -6.2799
 157   1.0000      -0.225699        -6.1416
 158   1.0000      -0.225594        -6.1387
 159   1.0000      -0.216471        -5.8905
 160   1.0000      -0.215920        -5.8755
 161   1.0000      -0.215063        -5.8522
 162   1.0000      -0.180273        -4.9055
 163   0.0000      -0.173641        -4.7250
 164   0.0000      -0.166844        -4.5401
 165   0.0000      -0.166113        -4.5202
 166   0.0000      -0.156791        -4.2665
 167   0.0000      -0.145636        -3.9630

MULLIKEN ATOMIC CHARGES AND SPIN POPULATIONS
--------------------------------------------
   0 Au:    0.085836    0.044582
   1 Au:    0.277150    0.047617
   2 Au:    0.073407    0.068027
   3 Au:   -0.706817    0.077991
   4 Au:    0.193767    0.011970
   5 Au:    0.287254    0.035184
   6 Au:    0.288094    0.037140
   7 Au:    0.105432    0.067255
   8 Au:    0.195332    0.011509
   9 Au:    0.286824    0.036451
  10 Au:    0.086646    0.044454
  11 Au:    0.274469    0.050126
  12 Au:    0.075897    0.067253
  13 Au:    0.105047    0.066353
  14 Au:    0.274669    0.056429
  15 Au:    0.194122    0.050302
  16 Fe:   -2.097128    3.227356
Sum of atomic charges         :   -0.0000000

LOEWDIN ATOMIC CHARGES AND SPIN POPULATIONS
-------------------------------------------
   0 Au:    0.019703    0.039659
   1 Au:    0.061756    0.033558
   2 Au:    0.018187    0.051016
   3 Au:   -0.063580    0.058127
   4 Au:    0.021364    0.022933
   5 Au:    0.024423    0.034321
   6 Au:    0.021923    0.034835
   7 Au:    0.027247    0.056496
   8 Au:    0.021466    0.022510
   9 Au:    0.021812    0.034184
  10 Au:    0.019802    0.039470
  11 Au:    0.061602    0.035532
  12 Au:    0.017752    0.050642
  13 Au:    0.027189    0.055966
  14 Au:    0.066892    0.045393
  15 Au:    0.025256    0.045899
  16 Fe:   -0.392795    3.339460

  Mayer bond orders larger than 0.100000
B(  0-Au,  1-Au) :   0.2418 B(  0-Au,  2-Au) :   0.2030 B(  0-Au,  4-Au) :   0.2104
B(  0-Au,  6-Au) :   0.2213 B(  0-Au,  7-Au) :   0.2549 B(  0-Au, 16-Fe) :   0.4018
B(  1-Au,  2-Au) :   0.2476 B(  1-Au, 11-Au) :   0.2410 B(  1-Au, 14-Au) :   0.2387
B(  1-Au, 16-Fe) :   0.3758 B(  2-Au,  4-Au) :   0.2259 B(  2-Au,  5-Au) :   0.2214
B(  2-Au, 12-Au) :   0.2553 B(  2-Au, 16-Fe) :   0.4242 B(  3-Au,  4-Au) :   0.3491
B(  3-Au,  5-Au) :   0.3724 B(  3-Au,  6-Au) :   0.3645 B(  3-Au,  8-Au) :   0.3517
B(  3-Au,  9-Au) :   0.3621 B(  3-Au, 15-Au) :   0.3513 B(  3-Au, 16-Fe) :   0.2956
B(  4-Au,  5-Au) :   0.2814 B(  4-Au,  6-Au) :   0.2855 B(  4-Au, 16-Fe) :   0.1256
B(  5-Au,  8-Au) :   0.2788 B(  5-Au, 12-Au) :   0.2225 B(  6-Au,  7-Au) :   0.2167
B(  6-Au, 15-Au) :   0.2765 B(  6-Au, 16-Fe) :   0.1094 B(  7-Au, 13-Au) :   0.1831
B(  7-Au, 14-Au) :   0.2359 B(  7-Au, 15-Au) :   0.2233 B(  7-Au, 16-Fe) :   0.4384
B(  8-Au,  9-Au) :   0.2864 B(  8-Au, 10-Au) :   0.2082 B(  8-Au, 12-Au) :   0.2269
B(  8-Au, 16-Fe) :   0.1238 B(  9-Au, 10-Au) :   0.2224 B(  9-Au, 13-Au) :   0.2163
B(  9-Au, 15-Au) :   0.2773 B(  9-Au, 16-Fe) :   0.1085 B( 10-Au, 11-Au) :   0.2391
B( 10-Au, 12-Au) :   0.2050 B( 10-Au, 13-Au) :   0.2547 B( 10-Au, 16-Fe) :   0.4027
B( 11-Au, 12-Au) :   0.2463 B( 11-Au, 14-Au) :   0.2382 B( 11-Au, 16-Fe) :   0.3838
B( 12-Au, 16-Fe) :   0.4199 B( 13-Au, 14-Au) :   0.2362 B( 13-Au, 15-Au) :   0.2227
B( 13-Au, 16-Fe) :   0.4375 B( 14-Au, 16-Fe) :   0.4094 B( 15-Au, 16-Fe) :   0.1647

FINAL SINGLE POINT ENERGY     -3436.761698270599

DIPOLE MOMENT
-------------
                                X             Y             Z
Electronic contribution:      8.50646      -3.95137     -22.80055
Nuclear contribution   :     -8.60675       4.00853      22.94369
                        -----------------------------------------
Total Dipole Moment    :     -0.10029       0.05716       0.14314
                        -----------------------------------------
Magnitude (a.u.)       :      0.18389
Magnitude (Debye)      :      0.46741

Rotational constants in cm-1:     0.000855     0.000838     0.000832
Rotational constants in MHz :    25.631559    25.116494    24.930831

                             ****ORCA TERMINATED NORMALLY****
TOTAL RUN TIME: 0 days 3 hours 29 minutes 23 seconds 327 msec
