                         Program Version 5.0.3 -  RELEASE  -
|  1> !RI-B2PLYP def2-TZVP def2-TZVP/C
|  2> !RIJCOSX VERYSLOWCONV
|  3>
|  4> %scf
|  5>   AutoTRAHIter 200
|  6>   maxiter 400
|  7> end
|  8>
|  9>
| 10> %pal nprocs 6 end
| 11>
| 12> *xyzfile 0 6 pbe.xyz
| 13>
| 14> $new_job
| 15>
| 16> !RI-B2PLYP def2-TZVP def2-TZVP/C
| 17> !RIJCOSX VERYSLOWCONV
| 18>
| 19> %scf
| 20>   AutoTRAHIter 200
| 21>   maxiter 400
| 22> end
| 23>
| 24>
| 25> %pal nprocs 6 end
| 26>
| 27> *xyzfile 0 4 pbe.xyz
| 28>
| 29>
| 30>
| 31>
| 32>
| 33>                          ****END OF INPUT****
 Total Charge           Charge          ....    0
 Multiplicity           Mult            ....    6
 Number of Electrons    NEL             ....  311
MP2 TOTAL ENERGY:    -3297.357673146 Eh
FINAL SINGLE POINT ENERGY     -3297.357673145913

CARTESIAN COORDINATES (ANGSTROEM)
---------------------------------
  Au     8.118630   10.838579    7.736253
  Au     7.851338   10.627280    4.953311
  Au     6.839951    9.275117    9.573605
  Au     9.639065    8.851344    8.892199
  Au     4.298777    8.432915    8.366348
  Au     5.771216    9.897232    6.632977
  Au     8.400951    6.794920   10.110746
  Au     5.653075    6.810448   10.157927
  Au     9.181473    6.486310    7.252097
  Au     6.841301    5.407094    5.844355
  Au     7.456196    7.884609    4.954723
  Au     9.725030    8.917772    6.139746
  Au     4.790711    7.457790    5.681036
  Au     4.697130    5.620433    7.780235
  Au     7.308716    4.840065    8.517576
  Fe     6.755309    7.462902    7.648832

 Multiplicity           Mult            ....    4
 Number of Electrons    NEL             ....  311
 Basis Dimension        Dim             ....  645

ORBITAL ENERGIES
----------------
                 SPIN UP ORBITALS
  NO   OCC          E(Eh)            E(eV)
   0   1.0000    -258.352861     -7030.1388
   1   1.0000     -30.911757      -841.1517
   2   1.0000     -26.631484      -724.6795
   3   1.0000     -26.601713      -723.8694
   4   1.0000     -26.596827      -723.7365
   5   1.0000      -4.408974      -119.9743
   6   1.0000      -4.408950      -119.9736
   7   1.0000      -4.408912      -119.9726
   8   1.0000      -4.408885      -119.9719
   9   1.0000      -4.405543      -119.8809
  10   1.0000      -4.405526      -119.8805
  11   1.0000      -4.404537      -119.8535
  12   1.0000      -4.404499      -119.8525
  13   1.0000      -4.398979      -119.7023
  14   1.0000      -4.398216      -119.6815
  15   1.0000      -4.393168      -119.5442
  16   1.0000      -4.391976      -119.5117
  17   1.0000      -4.390635      -119.4753
  18   1.0000      -4.390557      -119.4731
  19   1.0000      -4.387586      -119.3923
  20   1.0000      -3.925903      -106.8292
  21   1.0000      -2.678722       -72.8917
  22   1.0000      -2.616963       -71.2112
  23   1.0000      -2.608442       -70.9793
  24   1.0000      -2.530652       -68.8625
  25   1.0000      -2.530492       -68.8582
  26   1.0000      -2.529437       -68.8295
  27   1.0000      -2.529363       -68.8275
  28   1.0000      -2.527571       -68.7787
  29   1.0000      -2.527562       -68.7785
  30   1.0000      -2.526773       -68.7570
  31   1.0000      -2.526081       -68.7382
  32   1.0000      -2.525768       -68.7296
  33   1.0000      -2.525650       -68.7264
  34   1.0000      -2.524663       -68.6996
  35   1.0000      -2.524124       -68.6849
  36   1.0000      -2.523803       -68.6762
  37   1.0000      -2.523264       -68.6615
  38   1.0000      -2.523159       -68.6587
  39   1.0000      -2.523040       -68.6554
  40   1.0000      -2.522796       -68.6488
  41   1.0000      -2.522045       -68.6283
  42   1.0000      -2.521295       -68.6079
  43   1.0000      -2.520564       -68.5880
  44   1.0000      -2.520546       -68.5875
  45   1.0000      -2.520250       -68.5795
  46   1.0000      -2.519836       -68.5682
  47   1.0000      -2.519009       -68.5457
  48   1.0000      -2.517815       -68.5132
  49   1.0000      -2.516184       -68.4688
  50   1.0000      -2.515514       -68.4506
  51   1.0000      -2.513723       -68.4019
  52   1.0000      -2.513574       -68.3978
  53   1.0000      -2.512885       -68.3791
  54   1.0000      -2.512560       -68.3702
  55   1.0000      -2.511910       -68.3525
  56   1.0000      -2.511234       -68.3342
  57   1.0000      -2.510286       -68.3084
  58   1.0000      -2.509026       -68.2741
  59   1.0000      -2.508579       -68.2619
  60   1.0000      -2.508250       -68.2530
  61   1.0000      -2.507778       -68.2401
  62   1.0000      -2.507410       -68.2301
  63   1.0000      -2.506990       -68.2187
  64   1.0000      -2.506235       -68.1981
  65   1.0000      -2.505029       -68.1653
  66   1.0000      -2.503705       -68.1293
  67   1.0000      -2.502780       -68.1041
  68   1.0000      -2.502561       -68.0982
  69   1.0000      -0.573983       -15.6189
  70   1.0000      -0.568604       -15.4725
  71   1.0000      -0.567569       -15.4443
  72   1.0000      -0.546017       -14.8579
  73   1.0000      -0.525430       -14.2977
  74   1.0000      -0.518098       -14.0982
  75   1.0000      -0.477613       -12.9965
  76   1.0000      -0.474337       -12.9074
  77   1.0000      -0.471425       -12.8281
  78   1.0000      -0.467206       -12.7133
  79   1.0000      -0.466314       -12.6890
  80   1.0000      -0.464325       -12.6349
  81   1.0000      -0.460747       -12.5376
  82   1.0000      -0.459361       -12.4999
  83   1.0000      -0.457924       -12.4607
  84   1.0000      -0.457482       -12.4487
  85   1.0000      -0.456123       -12.4117
  86   1.0000      -0.455041       -12.3823
  87   1.0000      -0.452848       -12.3226
  88   1.0000      -0.450637       -12.2625
  89   1.0000      -0.450535       -12.2597
  90   1.0000      -0.449243       -12.2245
  91   1.0000      -0.448502       -12.2044
  92   1.0000      -0.447701       -12.1826
  93   1.0000      -0.446308       -12.1447
  94   1.0000      -0.444159       -12.0862
  95   1.0000      -0.440645       -11.9906
  96   1.0000      -0.439481       -11.9589
  97   1.0000      -0.439365       -11.9557
  98   1.0000      -0.437547       -11.9063
  99   1.0000      -0.432480       -11.7684
 100   1.0000      -0.430267       -11.7082
 101   1.0000      -0.430041       -11.7020
 102   1.0000      -0.424811       -11.5597
 103   1.0000      -0.423888       -11.5346
 104   1.0000      -0.421512       -11.4699
 105   1.0000      -0.417677       -11.3656
 106   1.0000      -0.415731       -11.3126
 107   1.0000      -0.410579       -11.1724
 108   1.0000      -0.407524       -11.0893
 109   1.0000      -0.406723       -11.0675
 110   1.0000      -0.398106       -10.8330
 111   1.0000      -0.394328       -10.7302
 112   1.0000      -0.390539       -10.6271
 113   1.0000      -0.387883       -10.5548
 114   1.0000      -0.387065       -10.5326
 115   1.0000      -0.384539       -10.4638
 116   1.0000      -0.378832       -10.3085
 117   1.0000      -0.378532       -10.3004
 118   1.0000      -0.378414       -10.2972
 119   1.0000      -0.376862       -10.2549
 120   1.0000      -0.374774       -10.1981
 121   1.0000      -0.373936       -10.1753
 122   1.0000      -0.372550       -10.1376
 123   1.0000      -0.370749       -10.0886
 124   1.0000      -0.369693       -10.0598
 125   1.0000      -0.368571       -10.0293
 126   1.0000      -0.368032       -10.0147
 127   1.0000      -0.367659       -10.0045
 128   1.0000      -0.367037        -9.9876
 129   1.0000      -0.364601        -9.9213
 130   1.0000      -0.363694        -9.8966
 131   1.0000      -0.360623        -9.8131
 132   1.0000      -0.360132        -9.7997
 133   1.0000      -0.357069        -9.7163
 134   1.0000      -0.356604        -9.7037
 135   1.0000      -0.355647        -9.6777
 136   1.0000      -0.353279        -9.6132
 137   1.0000      -0.349808        -9.5188
 138   1.0000      -0.349489        -9.5101
 139   1.0000      -0.348063        -9.4713
 140   1.0000      -0.346073        -9.4171
 141   1.0000      -0.344268        -9.3680
 142   1.0000      -0.343140        -9.3373
 143   1.0000      -0.338631        -9.2146
 144   1.0000      -0.336611        -9.1596
 145   1.0000      -0.335971        -9.1422
 146   1.0000      -0.335039        -9.1169
 147   1.0000      -0.328725        -8.9451
 148   1.0000      -0.327524        -8.9124
 149   1.0000      -0.325721        -8.8633
 150   1.0000      -0.316526        -8.6131
 151   1.0000      -0.314187        -8.5495
 152   1.0000      -0.305987        -8.3263
 153   1.0000      -0.248976        -6.7750
 154   1.0000      -0.229138        -6.2351
 155   1.0000      -0.227780        -6.1982
 156   1.0000      -0.210490        -5.7277
 157   0.0000      -0.135938        -3.6991
 158   0.0000      -0.087717        -2.3869
 159   0.0000      -0.077327        -2.1042
 160   0.0000      -0.068057        -1.8519
 161   0.0000      -0.065044        -1.7699

                 SPIN DOWN ORBITALS
  NO   OCC          E(Eh)            E(eV)
   0   1.0000    -258.350860     -7030.0843
   1   1.0000     -30.818687      -838.6191
   2   1.0000     -26.530819      -721.9403
   3   1.0000     -26.523105      -721.7304
   4   1.0000     -26.521222      -721.6791
   5   1.0000      -4.408781      -119.9690
   6   1.0000      -4.408757      -119.9684
   7   1.0000      -4.408725      -119.9675
   8   1.0000      -4.408717      -119.9673
   9   1.0000      -4.405633      -119.8834
  10   1.0000      -4.405615      -119.8829
  11   1.0000      -4.404416      -119.8503
  12   1.0000      -4.404378      -119.8492
  13   1.0000      -4.398856      -119.6990
  14   1.0000      -4.398654      -119.6934
  15   1.0000      -4.392805      -119.5343
  16   1.0000      -4.392530      -119.5268
  17   1.0000      -4.390656      -119.4758
  18   1.0000      -4.390580      -119.4737
  19   1.0000      -4.388046      -119.4048
  20   1.0000      -3.680360      -100.1477
  21   1.0000      -2.530133       -68.8484
  22   1.0000      -2.529988       -68.8445
  23   1.0000      -2.528200       -68.7958
  24   1.0000      -2.528158       -68.7947
  25   1.0000      -2.526566       -68.7514
  26   1.0000      -2.526551       -68.7510
  27   1.0000      -2.525570       -68.7243
  28   1.0000      -2.525314       -68.7173
  29   1.0000      -2.525133       -68.7124
  30   1.0000      -2.524556       -68.6967
  31   1.0000      -2.524503       -68.6952
  32   1.0000      -2.523950       -68.6802
  33   1.0000      -2.523137       -68.6580
  34   1.0000      -2.522996       -68.6542
  35   1.0000      -2.522819       -68.6494
  36   1.0000      -2.522586       -68.6431
  37   1.0000      -2.522577       -68.6428
  38   1.0000      -2.521647       -68.6175
  39   1.0000      -2.521168       -68.6045
  40   1.0000      -2.520596       -68.5889
  41   1.0000      -2.520304       -68.5809
  42   1.0000      -2.520032       -68.5736
  43   1.0000      -2.519866       -68.5691
  44   1.0000      -2.518999       -68.5454
  45   1.0000      -2.517110       -68.4940
  46   1.0000      -2.516385       -68.4743
  47   1.0000      -2.515480       -68.4497
  48   1.0000      -2.514706       -68.4286
  49   1.0000      -2.514048       -68.4107
  50   1.0000      -2.512789       -68.3765
  51   1.0000      -2.512458       -68.3675
  52   1.0000      -2.511738       -68.3479
  53   1.0000      -2.511278       -68.3353
  54   1.0000      -2.510150       -68.3046
  55   1.0000      -2.509336       -68.2825
  56   1.0000      -2.508866       -68.2697
  57   1.0000      -2.508757       -68.2667
  58   1.0000      -2.508152       -68.2503
  59   1.0000      -2.507954       -68.2449
  60   1.0000      -2.507643       -68.2364
  61   1.0000      -2.506114       -68.1948
  62   1.0000      -2.505132       -68.1681
  63   1.0000      -2.503970       -68.1365
  64   1.0000      -2.503427       -68.1217
  65   1.0000      -2.503001       -68.1101
  66   1.0000      -2.360052       -64.2203
  67   1.0000      -2.357890       -64.1614
  68   1.0000      -2.345430       -63.8224
  69   1.0000      -0.521758       -14.1977
  70   1.0000      -0.482043       -13.1170
  71   1.0000      -0.478531       -13.0215
  72   1.0000      -0.477301       -12.9880
  73   1.0000      -0.473153       -12.8752
  74   1.0000      -0.472928       -12.8690
  75   1.0000      -0.469027       -12.7629
  76   1.0000      -0.466188       -12.6856
  77   1.0000      -0.464509       -12.6399
  78   1.0000      -0.463401       -12.6098
  79   1.0000      -0.462333       -12.5807
  80   1.0000      -0.458805       -12.4847
  81   1.0000      -0.457926       -12.4608
  82   1.0000      -0.457770       -12.4565
  83   1.0000      -0.457660       -12.4536
  84   1.0000      -0.455867       -12.4048
  85   1.0000      -0.455121       -12.3845
  86   1.0000      -0.453033       -12.3277
  87   1.0000      -0.452423       -12.3111
  88   1.0000      -0.450713       -12.2645
  89   1.0000      -0.448879       -12.2146
  90   1.0000      -0.446790       -12.1578
  91   1.0000      -0.442392       -12.0381
  92   1.0000      -0.440730       -11.9929
  93   1.0000      -0.439681       -11.9643
  94   1.0000      -0.439189       -11.9509
  95   1.0000      -0.432281       -11.7630
  96   1.0000      -0.430946       -11.7266
  97   1.0000      -0.428682       -11.6650
  98   1.0000      -0.425313       -11.5733
  99   1.0000      -0.424008       -11.5379
 100   1.0000      -0.420748       -11.4491
 101   1.0000      -0.419096       -11.4042
 102   1.0000      -0.414495       -11.2790
 103   1.0000      -0.409306       -11.1378
 104   1.0000      -0.407734       -11.0950
 105   1.0000      -0.404459       -11.0059
 106   1.0000      -0.395277       -10.7560
 107   1.0000      -0.394176       -10.7261
 108   1.0000      -0.393583       -10.7099
 109   1.0000      -0.389299       -10.5934
 110   1.0000      -0.387874       -10.5546
 111   1.0000      -0.385761       -10.4971
 112   1.0000      -0.384673       -10.4675
 113   1.0000      -0.382442       -10.4068
 114   1.0000      -0.381023       -10.3682
 115   1.0000      -0.379691       -10.3319
 116   1.0000      -0.375768       -10.2252
 117   1.0000      -0.374061       -10.1787
 118   1.0000      -0.372474       -10.1355
 119   1.0000      -0.371912       -10.1202
 120   1.0000      -0.370811       -10.0903
 121   1.0000      -0.369182       -10.0460
 122   1.0000      -0.368930       -10.0391
 123   1.0000      -0.367320        -9.9953
 124   1.0000      -0.365903        -9.9567
 125   1.0000      -0.365238        -9.9386
 126   1.0000      -0.362468        -9.8632
 127   1.0000      -0.362333        -9.8596
 128   1.0000      -0.359004        -9.7690
 129   1.0000      -0.357890        -9.7387
 130   1.0000      -0.356505        -9.7010
 131   1.0000      -0.353942        -9.6312
 132   1.0000      -0.350699        -9.5430
 133   1.0000      -0.350425        -9.5356
 134   1.0000      -0.349163        -9.5012
 135   1.0000      -0.347779        -9.4635
 136   1.0000      -0.344991        -9.3877
 137   1.0000      -0.344190        -9.3659
 138   1.0000      -0.343049        -9.3348
 139   1.0000      -0.338106        -9.2003
 140   1.0000      -0.337283        -9.1779
 141   1.0000      -0.336501        -9.1566
 142   1.0000      -0.336486        -9.1563
 143   1.0000      -0.329333        -8.9616
 144   1.0000      -0.327769        -8.9191
 145   1.0000      -0.326122        -8.8742
 146   1.0000      -0.320730        -8.7275
 147   1.0000      -0.317965        -8.6523
 148   1.0000      -0.315182        -8.5765
 149   1.0000      -0.254336        -6.9208
 150   1.0000      -0.236232        -6.4282
 151   1.0000      -0.235363        -6.4045
 152   1.0000      -0.230369        -6.2687
 153   1.0000      -0.208214        -5.6658
 154   0.0000      -0.089869        -2.4455
 155   0.0000      -0.078873        -2.1463
 156   0.0000      -0.071447        -1.9442
 157   0.0000      -0.065292        -1.7767
 158   0.0000      -0.056358        -1.5336

MULLIKEN ATOMIC CHARGES AND SPIN POPULATIONS
--------------------------------------------
   0 Au:    0.106094    0.056005
   1 Au:    0.397960    0.058032
   2 Au:    0.081760   -0.138448
   3 Au:    0.060912   -0.011379
   4 Au:    0.328803   -0.080484
   5 Au:   -0.154191   -0.129339
   6 Au:    0.013908   -0.017773
   7 Au:    0.268234   -0.038114
   8 Au:    0.085106   -0.140043
   9 Au:    0.328209   -0.079654
  10 Au:   -0.151924   -0.129873
  11 Au:    0.100462    0.055907
  12 Au:    0.224478   -0.026216
  13 Au:    0.180233    0.037976
  14 Au:    0.268313   -0.038519
  15 Fe:   -2.138358    3.621922
Sum of atomic charges         :    0.0000000

LOEWDIN ATOMIC CHARGES AND SPIN POPULATIONS
-------------------------------------------
   0 Au:   -0.021146    0.021281
   1 Au:    0.103757    0.042577
   2 Au:    0.019304   -0.071423
   3 Au:   -0.016349   -0.036923
   4 Au:    0.063689   -0.080029
   5 Au:   -0.035942   -0.062365
   6 Au:    0.004168   -0.075124
   7 Au:    0.047010   -0.039456
   8 Au:    0.019534   -0.071836
   9 Au:    0.063953   -0.080249
  10 Au:   -0.035549   -0.062782
  11 Au:   -0.022633    0.021260
  12 Au:    0.041134   -0.088703
  13 Au:    0.015969    0.002087
  14 Au:    0.046930   -0.039687
  15 Fe:   -0.293827    3.621372

  Mayer bond orders larger than 0.100000
B(  0-Au,  1-Au) :   0.1937 B(  0-Au,  2-Au) :   0.3299 B(  0-Au,  3-Au) :   0.2494
B(  0-Au,  5-Au) :   0.2904 B(  0-Au, 11-Au) :   0.1505 B(  0-Au, 15-Fe) :   0.1461
B(  1-Au,  5-Au) :   0.2940 B(  1-Au, 10-Au) :   0.2940 B(  1-Au, 11-Au) :   0.1960
B(  2-Au,  3-Au) :   0.1310 B(  2-Au,  4-Au) :   0.1472 B(  2-Au,  5-Au) :   0.1279
B(  2-Au,  7-Au) :   0.2011 B(  2-Au, 15-Fe) :   0.5169 B(  3-Au,  6-Au) :   0.3456
B(  3-Au,  8-Au) :   0.1300 B(  3-Au, 11-Au) :   0.2509 B(  3-Au, 15-Fe) :   0.1958
B(  4-Au,  5-Au) :   0.2624 B(  4-Au,  7-Au) :   0.2255 B(  4-Au, 13-Au) :   0.1266
B(  4-Au, 15-Fe) :   0.4092 B(  5-Au, 10-Au) :   0.1967 B(  5-Au, 12-Au) :   0.1920
B(  5-Au, 15-Fe) :   0.4202 B(  6-Au,  7-Au) :   0.2345 B(  6-Au, 14-Au) :   0.2354
B(  6-Au, 15-Fe) :   0.3214 B(  7-Au, 13-Au) :   0.1736 B(  7-Au, 15-Fe) :   0.3600
B(  8-Au,  9-Au) :   0.1471 B(  8-Au, 10-Au) :   0.1268 B(  8-Au, 11-Au) :   0.3298
B(  8-Au, 14-Au) :   0.2008 B(  8-Au, 15-Fe) :   0.5165 B(  9-Au, 10-Au) :   0.2633
B(  9-Au, 13-Au) :   0.1272 B(  9-Au, 14-Au) :   0.2242 B(  9-Au, 15-Fe) :   0.4101
B( 10-Au, 11-Au) :   0.2892 B( 10-Au, 12-Au) :   0.1909 B( 10-Au, 15-Fe) :   0.4206
B( 11-Au, 15-Fe) :   0.1478 B( 12-Au, 13-Au) :   0.2160 B( 12-Au, 15-Fe) :   0.3510
B( 13-Au, 14-Au) :   0.1745 B( 13-Au, 15-Fe) :   0.4174 B( 14-Au, 15-Fe) :   0.3593

MP2 TOTAL ENERGY:    -3297.350224017 Eh
FINAL SINGLE POINT ENERGY     -3297.350224017086

DIPOLE MOMENT
-------------
                                X             Y             Z
Electronic contribution:     13.09605      15.71901      -5.62824
Nuclear contribution   :    -13.36478     -15.79734       5.45239
                        -----------------------------------------
Total Dipole Moment    :     -0.26873      -0.07833      -0.17586
                        -----------------------------------------
Magnitude (a.u.)       :      0.33057
Magnitude (Debye)      :      0.84024

Rotational constants in cm-1:     0.001113     0.000903     0.000829
Rotational constants in MHz :    33.363074    27.076883    24.863345

                             ****ORCA TERMINATED NORMALLY****
TOTAL RUN TIME: 0 days 0 hours 45 minutes 36 seconds 340 msec
