                         Program Version 5.0.3 -  RELEASE  -
|  1> !PBE def2-TZVP VERYSLOWCONV
|  2>
|  3> %scf
|  4>   AutoTRAHIter 200
|  5>   maxiter 400
|  6> end
|  7>
|  8>
|  9> %pal nprocs 6 end
| 10>
| 11> *xyzfile 0 6 pbe.xyz
| 12>
| 13> $new_job
| 14>
| 15> !PBE def2-TZVP VERYSLOWCONV
| 16>
| 17> %scf
| 18>   AutoTRAHIter 200
| 19>   maxiter 400
| 20> end
| 21>
| 22>
| 23> %pal nprocs 6 end
| 24>
| 25> *xyzfile 0 4 pbe.xyz
| 26>
| 27>
| 28>
| 29>
| 30>
| 31>                          ****END OF INPUT****
 Total Charge           Charge          ....    0
 Multiplicity           Mult            ....    6
 Number of Electrons    NEL             ....  311
FINAL SINGLE POINT ENERGY     -3300.920592170327

CARTESIAN COORDINATES (ANGSTROEM)
---------------------------------
  Au     8.118630   10.838579    7.736253
  Au     7.851338   10.627280    4.953311
  Au     6.839951    9.275117    9.573605
  Au     9.639065    8.851344    8.892199
  Au     4.298777    8.432915    8.366348
  Au     5.771216    9.897232    6.632977
  Au     8.400951    6.794920   10.110746
  Au     5.653075    6.810448   10.157927
  Au     9.181473    6.486310    7.252097
  Au     6.841301    5.407094    5.844355
  Au     7.456196    7.884609    4.954723
  Au     9.725030    8.917772    6.139746
  Au     4.790711    7.457790    5.681036
  Au     4.697130    5.620433    7.780235
  Au     7.308716    4.840065    8.517576
  Fe     6.755309    7.462902    7.648832

 Multiplicity           Mult            ....    4
 Number of Electrons    NEL             ....  311
 Basis Dimension        Dim             ....  645

ORBITAL ENERGIES
----------------
                 SPIN UP ORBITALS
  NO   OCC          E(Eh)            E(eV)
   0   1.0000    -254.758091     -6932.3201
   1   1.0000     -29.593349      -805.2760
   2   1.0000     -25.537289      -694.9050
   3   1.0000     -25.530808      -694.7286
   4   1.0000     -25.518540      -694.3948
   5   1.0000      -4.038798      -109.9013
   6   1.0000      -4.038722      -109.8992
   7   1.0000      -4.034244      -109.7774
   8   1.0000      -4.034236      -109.7771
   9   1.0000      -4.032923      -109.7414
  10   1.0000      -4.032897      -109.7407
  11   1.0000      -4.031189      -109.6942
  12   1.0000      -4.030690      -109.6806
  13   1.0000      -4.030650      -109.6796
  14   1.0000      -4.027935      -109.6057
  15   1.0000      -4.026879      -109.5769
  16   1.0000      -4.022715      -109.4636
  17   1.0000      -4.020650      -109.4075
  18   1.0000      -4.020582      -109.4056
  19   1.0000      -4.018920      -109.3604
  20   1.0000      -3.372643       -91.7743
  21   1.0000      -2.254616       -61.3512
  22   1.0000      -2.254520       -61.3486
  23   1.0000      -2.252603       -61.2964
  24   1.0000      -2.252549       -61.2950
  25   1.0000      -2.251583       -61.2687
  26   1.0000      -2.251468       -61.2656
  27   1.0000      -2.249134       -61.2021
  28   1.0000      -2.249111       -61.2014
  29   1.0000      -2.248146       -61.1752
  30   1.0000      -2.248070       -61.1731
  31   1.0000      -2.247515       -61.1580
  32   1.0000      -2.247176       -61.1488
  33   1.0000      -2.245882       -61.1136
  34   1.0000      -2.245517       -61.1036
  35   1.0000      -2.245316       -61.0982
  36   1.0000      -2.244876       -61.0862
  37   1.0000      -2.244446       -61.0745
  38   1.0000      -2.244278       -61.0699
  39   1.0000      -2.244089       -61.0648
  40   1.0000      -2.243992       -61.0621
  41   1.0000      -2.243793       -61.0567
  42   1.0000      -2.243762       -61.0559
  43   1.0000      -2.243350       -61.0447
  44   1.0000      -2.243307       -61.0435
  45   1.0000      -2.242853       -61.0311
  46   1.0000      -2.242398       -61.0187
  47   1.0000      -2.241930       -61.0060
  48   1.0000      -2.241717       -61.0002
  49   1.0000      -2.240667       -60.9716
  50   1.0000      -2.239901       -60.9508
  51   1.0000      -2.239311       -60.9347
  52   1.0000      -2.238950       -60.9249
  53   1.0000      -2.238021       -60.8996
  54   1.0000      -2.237971       -60.8983
  55   1.0000      -2.237220       -60.8778
  56   1.0000      -2.236317       -60.8533
  57   1.0000      -2.234865       -60.8138
  58   1.0000      -2.234287       -60.7980
  59   1.0000      -2.233784       -60.7843
  60   1.0000      -2.232859       -60.7592
  61   1.0000      -2.232085       -60.7381
  62   1.0000      -2.231935       -60.7340
  63   1.0000      -2.230762       -60.7021
  64   1.0000      -2.229431       -60.6659
  65   1.0000      -2.228845       -60.6500
  66   1.0000      -2.203406       -59.9577
  67   1.0000      -2.190636       -59.6102
  68   1.0000      -2.165540       -58.9273
  69   1.0000      -0.441007       -12.0004
  70   1.0000      -0.393328       -10.7030
  71   1.0000      -0.392742       -10.6870
  72   1.0000      -0.390517       -10.6265
  73   1.0000      -0.382901       -10.4193
  74   1.0000      -0.379069       -10.3150
  75   1.0000      -0.375788       -10.2257
  76   1.0000      -0.372433       -10.1344
  77   1.0000      -0.371911       -10.1202
  78   1.0000      -0.364006        -9.9051
  79   1.0000      -0.362770        -9.8715
  80   1.0000      -0.360154        -9.8003
  81   1.0000      -0.357167        -9.7190
  82   1.0000      -0.356722        -9.7069
  83   1.0000      -0.355237        -9.6665
  84   1.0000      -0.350932        -9.5494
  85   1.0000      -0.349795        -9.5184
  86   1.0000      -0.349261        -9.5039
  87   1.0000      -0.348918        -9.4945
  88   1.0000      -0.346571        -9.4307
  89   1.0000      -0.344835        -9.3834
  90   1.0000      -0.343251        -9.3403
  91   1.0000      -0.342683        -9.3249
  92   1.0000      -0.341239        -9.2856
  93   1.0000      -0.338017        -9.1979
  94   1.0000      -0.337302        -9.1785
  95   1.0000      -0.334382        -9.0990
  96   1.0000      -0.331295        -9.0150
  97   1.0000      -0.330491        -8.9931
  98   1.0000      -0.328959        -8.9514
  99   1.0000      -0.326751        -8.8914
 100   1.0000      -0.322228        -8.7683
 101   1.0000      -0.320641        -8.7251
 102   1.0000      -0.315712        -8.5909
 103   1.0000      -0.312205        -8.4955
 104   1.0000      -0.309698        -8.4273
 105   1.0000      -0.307799        -8.3756
 106   1.0000      -0.307572        -8.3694
 107   1.0000      -0.302969        -8.2442
 108   1.0000      -0.298773        -8.1300
 109   1.0000      -0.295030        -8.0282
 110   1.0000      -0.293773        -7.9940
 111   1.0000      -0.293679        -7.9914
 112   1.0000      -0.289937        -7.8896
 113   1.0000      -0.287964        -7.8359
 114   1.0000      -0.287005        -7.8098
 115   1.0000      -0.282516        -7.6876
 116   1.0000      -0.280661        -7.6372
 117   1.0000      -0.280095        -7.6218
 118   1.0000      -0.278820        -7.5871
 119   1.0000      -0.275686        -7.5018
 120   1.0000      -0.275514        -7.4971
 121   1.0000      -0.274118        -7.4591
 122   1.0000      -0.273114        -7.4318
 123   1.0000      -0.272766        -7.4223
 124   1.0000      -0.272005        -7.4016
 125   1.0000      -0.271630        -7.3914
 126   1.0000      -0.268922        -7.3177
 127   1.0000      -0.268194        -7.2979
 128   1.0000      -0.266647        -7.2558
 129   1.0000      -0.265507        -7.2248
 130   1.0000      -0.263427        -7.1682
 131   1.0000      -0.262067        -7.1312
 132   1.0000      -0.261229        -7.1084
 133   1.0000      -0.260207        -7.0806
 134   1.0000      -0.258054        -7.0220
 135   1.0000      -0.258006        -7.0207
 136   1.0000      -0.256631        -6.9833
 137   1.0000      -0.255954        -6.9649
 138   1.0000      -0.255876        -6.9627
 139   1.0000      -0.255511        -6.9528
 140   1.0000      -0.253911        -6.9093
 141   1.0000      -0.251549        -6.8450
 142   1.0000      -0.250870        -6.8265
 143   1.0000      -0.249781        -6.7969
 144   1.0000      -0.248322        -6.7572
 145   1.0000      -0.248289        -6.7563
 146   1.0000      -0.246576        -6.7097
 147   1.0000      -0.243866        -6.6359
 148   1.0000      -0.243850        -6.6355
 149   1.0000      -0.241683        -6.5765
 150   1.0000      -0.240346        -6.5402
 151   1.0000      -0.237885        -6.4732
 152   1.0000      -0.232467        -6.3257
 153   1.0000      -0.217864        -5.9284
 154   1.0000      -0.209107        -5.6901
 155   1.0000      -0.206617        -5.6223
 156   1.0000      -0.197006        -5.3608
 157   0.0000      -0.196241        -5.3400
 158   0.0000      -0.145595        -3.9618
 159   0.0000      -0.139780        -3.8036
 160   0.0000      -0.132293        -3.5999
 161   0.0000      -0.125806        -3.4233

                 SPIN DOWN ORBITALS
  NO   OCC          E(Eh)            E(eV)
   0   1.0000    -254.757427     -6932.3020
   1   1.0000     -29.535877      -803.7121
   2   1.0000     -25.490789      -693.6396
   3   1.0000     -25.486602      -693.5257
   4   1.0000     -25.479089      -693.3212
   5   1.0000      -4.038128      -109.8830
   6   1.0000      -4.038051      -109.8810
   7   1.0000      -4.034110      -109.7737
   8   1.0000      -4.034105      -109.7736
   9   1.0000      -4.033142      -109.7474
  10   1.0000      -4.033117      -109.7467
  11   1.0000      -4.031092      -109.6916
  12   1.0000      -4.030700      -109.6809
  13   1.0000      -4.030662      -109.6799
  14   1.0000      -4.027694      -109.5991
  15   1.0000      -4.027084      -109.5825
  16   1.0000      -4.022950      -109.4700
  17   1.0000      -4.020765      -109.4106
  18   1.0000      -4.020694      -109.4086
  19   1.0000      -4.018972      -109.3618
  20   1.0000      -3.241943       -88.2177
  21   1.0000      -2.253657       -61.3251
  22   1.0000      -2.253582       -61.3231
  23   1.0000      -2.251935       -61.2783
  24   1.0000      -2.251848       -61.2759
  25   1.0000      -2.251603       -61.2692
  26   1.0000      -2.251551       -61.2678
  27   1.0000      -2.248782       -61.1925
  28   1.0000      -2.248757       -61.1918
  29   1.0000      -2.247886       -61.1681
  30   1.0000      -2.247797       -61.1657
  31   1.0000      -2.247446       -61.1561
  32   1.0000      -2.247234       -61.1503
  33   1.0000      -2.245856       -61.1129
  34   1.0000      -2.245545       -61.1044
  35   1.0000      -2.245405       -61.1006
  36   1.0000      -2.244765       -61.0832
  37   1.0000      -2.244580       -61.0781
  38   1.0000      -2.244165       -61.0668
  39   1.0000      -2.244036       -61.0633
  40   1.0000      -2.243792       -61.0567
  41   1.0000      -2.243666       -61.0533
  42   1.0000      -2.243650       -61.0528
  43   1.0000      -2.243485       -61.0483
  44   1.0000      -2.243337       -61.0443
  45   1.0000      -2.242684       -61.0265
  46   1.0000      -2.242662       -61.0259
  47   1.0000      -2.241801       -61.0025
  48   1.0000      -2.241737       -61.0008
  49   1.0000      -2.239929       -60.9516
  50   1.0000      -2.239680       -60.9448
  51   1.0000      -2.239491       -60.9396
  52   1.0000      -2.239071       -60.9282
  53   1.0000      -2.238664       -60.9171
  54   1.0000      -2.238092       -60.9016
  55   1.0000      -2.237548       -60.8868
  56   1.0000      -2.236475       -60.8576
  57   1.0000      -2.235317       -60.8261
  58   1.0000      -2.234436       -60.8021
  59   1.0000      -2.233952       -60.7889
  60   1.0000      -2.233084       -60.7653
  61   1.0000      -2.232253       -60.7427
  62   1.0000      -2.232035       -60.7368
  63   1.0000      -2.230735       -60.7014
  64   1.0000      -2.229407       -60.6653
  65   1.0000      -2.228826       -60.6494
  66   1.0000      -2.065993       -56.2185
  67   1.0000      -2.061169       -56.0872
  68   1.0000      -2.048496       -55.7424
  69   1.0000      -0.436912       -11.8890
  70   1.0000      -0.393226       -10.7002
  71   1.0000      -0.392054       -10.6683
  72   1.0000      -0.389660       -10.6032
  73   1.0000      -0.377495       -10.2722
  74   1.0000      -0.371747       -10.1158
  75   1.0000      -0.370420       -10.0796
  76   1.0000      -0.367948       -10.0124
  77   1.0000      -0.366329        -9.9683
  78   1.0000      -0.362997        -9.8776
  79   1.0000      -0.361583        -9.8392
  80   1.0000      -0.358781        -9.7629
  81   1.0000      -0.355762        -9.6808
  82   1.0000      -0.355202        -9.6655
  83   1.0000      -0.355061        -9.6617
  84   1.0000      -0.350173        -9.5287
  85   1.0000      -0.350014        -9.5244
  86   1.0000      -0.348618        -9.4864
  87   1.0000      -0.347521        -9.4565
  88   1.0000      -0.346443        -9.4272
  89   1.0000      -0.345267        -9.3952
  90   1.0000      -0.343346        -9.3429
  91   1.0000      -0.342718        -9.3258
  92   1.0000      -0.340951        -9.2777
  93   1.0000      -0.337728        -9.1900
  94   1.0000      -0.337114        -9.1733
  95   1.0000      -0.331122        -9.0103
  96   1.0000      -0.331032        -9.0078
  97   1.0000      -0.327984        -8.9249
  98   1.0000      -0.327718        -8.9177
  99   1.0000      -0.326627        -8.8880
 100   1.0000      -0.319510        -8.6943
 101   1.0000      -0.319219        -8.6864
 102   1.0000      -0.313070        -8.5191
 103   1.0000      -0.310088        -8.4379
 104   1.0000      -0.308043        -8.3823
 105   1.0000      -0.304129        -8.2758
 106   1.0000      -0.301334        -8.1997
 107   1.0000      -0.297484        -8.0950
 108   1.0000      -0.296868        -8.0782
 109   1.0000      -0.293612        -7.9896
 110   1.0000      -0.292417        -7.9571
 111   1.0000      -0.288040        -7.8380
 112   1.0000      -0.285357        -7.7650
 113   1.0000      -0.284631        -7.7452
 114   1.0000      -0.282578        -7.6893
 115   1.0000      -0.280527        -7.6335
 116   1.0000      -0.280424        -7.6307
 117   1.0000      -0.278347        -7.5742
 118   1.0000      -0.277241        -7.5441
 119   1.0000      -0.275784        -7.5045
 120   1.0000      -0.273993        -7.4557
 121   1.0000      -0.273937        -7.4542
 122   1.0000      -0.273056        -7.4302
 123   1.0000      -0.271928        -7.3995
 124   1.0000      -0.271846        -7.3973
 125   1.0000      -0.271368        -7.3843
 126   1.0000      -0.267606        -7.2819
 127   1.0000      -0.266527        -7.2526
 128   1.0000      -0.266293        -7.2462
 129   1.0000      -0.265640        -7.2284
 130   1.0000      -0.262555        -7.1445
 131   1.0000      -0.261094        -7.1047
 132   1.0000      -0.258385        -7.0310
 133   1.0000      -0.256942        -6.9917
 134   1.0000      -0.255875        -6.9627
 135   1.0000      -0.255760        -6.9596
 136   1.0000      -0.255015        -6.9393
 137   1.0000      -0.252308        -6.8657
 138   1.0000      -0.251023        -6.8307
 139   1.0000      -0.250183        -6.8078
 140   1.0000      -0.248795        -6.7701
 141   1.0000      -0.248164        -6.7529
 142   1.0000      -0.247142        -6.7251
 143   1.0000      -0.244974        -6.6661
 144   1.0000      -0.243571        -6.6279
 145   1.0000      -0.242549        -6.6001
 146   1.0000      -0.240946        -6.5565
 147   1.0000      -0.233671        -6.3585
 148   1.0000      -0.227190        -6.1822
 149   1.0000      -0.214309        -5.8316
 150   1.0000      -0.212909        -5.7935
 151   1.0000      -0.212126        -5.7722
 152   1.0000      -0.206534        -5.6201
 153   1.0000      -0.177868        -4.8400
 154   0.0000      -0.164457        -4.4751
 155   0.0000      -0.163700        -4.4545
 156   0.0000      -0.154042        -4.1917
 157   0.0000      -0.150917        -4.1066
 158   0.0000      -0.141098        -3.8395

MULLIKEN ATOMIC CHARGES AND SPIN POPULATIONS
--------------------------------------------
   0 Au:    0.123835    0.051483
   1 Au:    0.390131   -0.047240
   2 Au:    0.102163   -0.023559
   3 Au:    0.091564    0.038849
   4 Au:    0.360003   -0.012885
   5 Au:   -0.142692   -0.077571
   6 Au:    0.097818    0.039028
   7 Au:    0.296125   -0.030974
   8 Au:    0.103845   -0.022877
   9 Au:    0.360451   -0.013626
  10 Au:   -0.140258   -0.077702
  11 Au:    0.118975    0.051486
  12 Au:    0.302438    0.064665
  13 Au:    0.229283    0.054202
  14 Au:    0.296107   -0.031451
  15 Fe:   -2.589787    3.038171
Sum of atomic charges         :   -0.0000000

LOEWDIN ATOMIC CHARGES AND SPIN POPULATIONS
-------------------------------------------
   0 Au:   -0.013309    0.018983
   1 Au:    0.074704   -0.021975
   2 Au:    0.051818    0.000520
   3 Au:    0.005628    0.018029
   4 Au:    0.086261   -0.021877
   5 Au:   -0.014662   -0.044543
   6 Au:    0.035687   -0.009105
   7 Au:    0.057684   -0.021479
   8 Au:    0.051899    0.000670
   9 Au:    0.086447   -0.022297
  10 Au:   -0.014368   -0.044619
  11 Au:   -0.014403    0.018901
  12 Au:    0.080646   -0.003362
  13 Au:    0.042676    0.030478
  14 Au:    0.057509   -0.021804
  15 Fe:   -0.574217    3.123481

  Mayer bond orders larger than 0.100000
B(  0-Au,  1-Au) :   0.2382 B(  0-Au,  2-Au) :   0.3609 B(  0-Au,  3-Au) :   0.2852
B(  0-Au,  5-Au) :   0.3078 B(  0-Au, 11-Au) :   0.1849 B(  0-Au, 15-Fe) :   0.1396
B(  1-Au,  5-Au) :   0.3154 B(  1-Au, 10-Au) :   0.3157 B(  1-Au, 11-Au) :   0.2404
B(  2-Au,  3-Au) :   0.1617 B(  2-Au,  4-Au) :   0.1594 B(  2-Au,  5-Au) :   0.1411
B(  2-Au,  6-Au) :   0.1072 B(  2-Au,  7-Au) :   0.2167 B(  2-Au, 15-Fe) :   0.5570
B(  3-Au,  6-Au) :   0.3625 B(  3-Au,  8-Au) :   0.1600 B(  3-Au, 11-Au) :   0.2863
B(  3-Au, 15-Fe) :   0.2427 B(  4-Au,  5-Au) :   0.2905 B(  4-Au,  7-Au) :   0.2522
B(  4-Au, 12-Au) :   0.1098 B(  4-Au, 13-Au) :   0.1476 B(  4-Au, 15-Fe) :   0.4393
B(  5-Au, 10-Au) :   0.2126 B(  5-Au, 12-Au) :   0.2097 B(  5-Au, 15-Fe) :   0.4252
B(  6-Au,  7-Au) :   0.2607 B(  6-Au,  8-Au) :   0.1066 B(  6-Au, 14-Au) :   0.2608
B(  6-Au, 15-Fe) :   0.3601 B(  7-Au, 13-Au) :   0.2059 B(  7-Au, 14-Au) :   0.1049
B(  7-Au, 15-Fe) :   0.3525 B(  8-Au,  9-Au) :   0.1594 B(  8-Au, 10-Au) :   0.1393
B(  8-Au, 11-Au) :   0.3614 B(  8-Au, 14-Au) :   0.2169 B(  8-Au, 15-Fe) :   0.5577
B(  9-Au, 10-Au) :   0.2911 B(  9-Au, 12-Au) :   0.1081 B(  9-Au, 13-Au) :   0.1488
B(  9-Au, 14-Au) :   0.2511 B(  9-Au, 15-Fe) :   0.4392 B( 10-Au, 11-Au) :   0.3060
B( 10-Au, 12-Au) :   0.2101 B( 10-Au, 15-Fe) :   0.4251 B( 11-Au, 15-Fe) :   0.1410
B( 12-Au, 13-Au) :   0.2391 B( 12-Au, 15-Fe) :   0.4148 B( 13-Au, 14-Au) :   0.2066
B( 13-Au, 15-Fe) :   0.4590 B( 14-Au, 15-Fe) :   0.3517

FINAL SINGLE POINT ENERGY     -3300.906361061392

DIPOLE MOMENT
-------------
                                X             Y             Z
Electronic contribution:     13.13695      15.62575      -5.47374
Nuclear contribution   :    -13.36478     -15.79734       5.45239
                        -----------------------------------------
Total Dipole Moment    :     -0.22784      -0.17158      -0.02135
                        -----------------------------------------
Magnitude (a.u.)       :      0.28602
Magnitude (Debye)      :      0.72700

Rotational constants in cm-1:     0.001113     0.000903     0.000829
Rotational constants in MHz :    33.363074    27.076883    24.863345

                             ****ORCA TERMINATED NORMALLY****
TOTAL RUN TIME: 0 days 0 hours 14 minutes 22 seconds 658 msec
