                         Program Version 5.0.3 -  RELEASE  -
|  1> !R2SCAN def2-TZVP VERYSLOWCONV
|  2>
|  3> %scf
|  4>   AutoTRAHIter 400
|  5>   maxiter 600
|  6> end
|  7>
|  8> %pal nprocs 6 end
|  9>
| 10> *xyzfile 0 6 pbe.xyz
| 11>
| 12> $new_job
| 13>
| 14> !R2SCAN def2-TZVP VERYSLOWCONV
| 15> %scf
| 16>   AutoTRAHIter 400
| 17>   maxiter 600
| 18> end
| 19>
| 20>
| 21> %pal nprocs 6 end
| 22>
| 23> *xyzfile 0 4 pbe.xyz
| 24>
| 25>
| 26>
| 27>
| 28>
| 29>                          ****END OF INPUT****
 Total Charge           Charge          ....    0
 Multiplicity           Mult            ....    6
 Number of Electrons    NEL             ....  311
FINAL SINGLE POINT ENERGY     -3301.439226973978

CARTESIAN COORDINATES (ANGSTROEM)
---------------------------------
  Au     8.118630   10.838579    7.736253
  Au     7.851338   10.627280    4.953311
  Au     6.839951    9.275117    9.573605
  Au     9.639065    8.851344    8.892199
  Au     4.298777    8.432915    8.366348
  Au     5.771216    9.897232    6.632977
  Au     8.400951    6.794920   10.110746
  Au     5.653075    6.810448   10.157927
  Au     9.181473    6.486310    7.252097
  Au     6.841301    5.407094    5.844355
  Au     7.456196    7.884609    4.954723
  Au     9.725030    8.917772    6.139746
  Au     4.790711    7.457790    5.681036
  Au     4.697130    5.620433    7.780235
  Au     7.308716    4.840065    8.517576
  Fe     6.755309    7.462902    7.648832

 Multiplicity           Mult            ....    4
 Number of Electrons    NEL             ....  311
 Basis Dimension        Dim             ....  645

ORBITAL ENERGIES
----------------
                 SPIN UP ORBITALS
  NO   OCC          E(Eh)            E(eV)
   0   1.0000    -255.637453     -6956.2488
   1   1.0000     -29.933384      -814.5288
   2   1.0000     -25.772191      -701.2970
   3   1.0000     -25.767820      -701.1780
   4   1.0000     -25.751049      -700.7217
   5   1.0000      -4.128665      -112.3467
   6   1.0000      -4.128625      -112.3456
   7   1.0000      -4.125330      -112.2559
   8   1.0000      -4.125271      -112.2543
   9   1.0000      -4.124727      -112.2395
  10   1.0000      -4.122313      -112.1738
  11   1.0000      -4.122259      -112.1724
  12   1.0000      -4.122060      -112.1670
  13   1.0000      -4.122038      -112.1663
  14   1.0000      -4.119902      -112.1082
  15   1.0000      -4.117550      -112.0442
  16   1.0000      -4.115469      -111.9876
  17   1.0000      -4.112214      -111.8990
  18   1.0000      -4.111535      -111.8805
  19   1.0000      -4.111463      -111.8786
  20   1.0000      -3.515777       -95.6692
  21   1.0000      -2.317234       -63.0551
  22   1.0000      -2.317038       -63.0498
  23   1.0000      -2.315130       -62.9979
  24   1.0000      -2.315054       -62.9958
  25   1.0000      -2.314901       -62.9916
  26   1.0000      -2.314595       -62.9833
  27   1.0000      -2.312594       -62.9289
  28   1.0000      -2.312512       -62.9266
  29   1.0000      -2.312334       -62.9218
  30   1.0000      -2.311498       -62.8991
  31   1.0000      -2.311381       -62.8959
  32   1.0000      -2.311231       -62.8918
  33   1.0000      -2.310639       -62.8757
  34   1.0000      -2.310055       -62.8598
  35   1.0000      -2.309919       -62.8561
  36   1.0000      -2.309419       -62.8425
  37   1.0000      -2.308625       -62.8209
  38   1.0000      -2.308590       -62.8199
  39   1.0000      -2.308029       -62.8047
  40   1.0000      -2.307941       -62.8023
  41   1.0000      -2.307599       -62.7930
  42   1.0000      -2.307577       -62.7924
  43   1.0000      -2.306941       -62.7751
  44   1.0000      -2.306064       -62.7512
  45   1.0000      -2.305820       -62.7446
  46   1.0000      -2.305728       -62.7421
  47   1.0000      -2.305169       -62.7268
  48   1.0000      -2.304695       -62.7139
  49   1.0000      -2.304460       -62.7075
  50   1.0000      -2.303610       -62.6844
  51   1.0000      -2.303302       -62.6760
  52   1.0000      -2.303241       -62.6744
  53   1.0000      -2.302729       -62.6605
  54   1.0000      -2.302278       -62.6482
  55   1.0000      -2.301598       -62.6297
  56   1.0000      -2.300737       -62.6062
  57   1.0000      -2.299546       -62.5738
  58   1.0000      -2.299083       -62.5612
  59   1.0000      -2.298026       -62.5325
  60   1.0000      -2.297874       -62.5283
  61   1.0000      -2.297610       -62.5211
  62   1.0000      -2.297450       -62.5168
  63   1.0000      -2.297172       -62.5092
  64   1.0000      -2.296566       -62.4927
  65   1.0000      -2.293241       -62.4023
  66   1.0000      -2.292378       -62.3788
  67   1.0000      -2.289987       -62.3137
  68   1.0000      -2.254634       -61.3517
  69   1.0000      -0.446281       -12.1439
  70   1.0000      -0.399526       -10.8717
  71   1.0000      -0.399421       -10.8688
  72   1.0000      -0.395989       -10.7754
  73   1.0000      -0.394763       -10.7420
  74   1.0000      -0.391083       -10.6419
  75   1.0000      -0.383694       -10.4408
  76   1.0000      -0.382103       -10.3976
  77   1.0000      -0.381681       -10.3861
  78   1.0000      -0.373325       -10.1587
  79   1.0000      -0.371913       -10.1203
  80   1.0000      -0.369544       -10.0558
  81   1.0000      -0.367421        -9.9980
  82   1.0000      -0.367245        -9.9932
  83   1.0000      -0.363856        -9.9010
  84   1.0000      -0.360848        -9.8192
  85   1.0000      -0.359812        -9.7910
  86   1.0000      -0.358723        -9.7614
  87   1.0000      -0.358663        -9.7597
  88   1.0000      -0.355591        -9.6761
  89   1.0000      -0.354141        -9.6367
  90   1.0000      -0.352652        -9.5961
  91   1.0000      -0.351721        -9.5708
  92   1.0000      -0.350410        -9.5351
  93   1.0000      -0.348263        -9.4767
  94   1.0000      -0.347661        -9.4603
  95   1.0000      -0.344702        -9.3798
  96   1.0000      -0.340228        -9.2581
  97   1.0000      -0.340008        -9.2521
  98   1.0000      -0.338058        -9.1990
  99   1.0000      -0.336277        -9.1506
 100   1.0000      -0.331993        -9.0340
 101   1.0000      -0.331819        -9.0293
 102   1.0000      -0.327010        -8.8984
 103   1.0000      -0.323544        -8.8041
 104   1.0000      -0.319998        -8.7076
 105   1.0000      -0.319782        -8.7017
 106   1.0000      -0.317038        -8.6270
 107   1.0000      -0.316307        -8.6071
 108   1.0000      -0.310289        -8.4434
 109   1.0000      -0.304661        -8.2903
 110   1.0000      -0.303709        -8.2643
 111   1.0000      -0.301935        -8.2161
 112   1.0000      -0.301160        -8.1950
 113   1.0000      -0.296584        -8.0705
 114   1.0000      -0.294416        -8.0115
 115   1.0000      -0.291095        -7.9211
 116   1.0000      -0.288779        -7.8581
 117   1.0000      -0.288501        -7.8505
 118   1.0000      -0.287248        -7.8164
 119   1.0000      -0.285263        -7.7624
 120   1.0000      -0.283698        -7.7198
 121   1.0000      -0.282609        -7.6902
 122   1.0000      -0.282131        -7.6772
 123   1.0000      -0.281549        -7.6613
 124   1.0000      -0.281443        -7.6585
 125   1.0000      -0.280639        -7.6366
 126   1.0000      -0.279266        -7.5992
 127   1.0000      -0.277523        -7.5518
 128   1.0000      -0.277178        -7.5424
 129   1.0000      -0.274070        -7.4578
 130   1.0000      -0.274059        -7.4575
 131   1.0000      -0.271924        -7.3994
 132   1.0000      -0.270798        -7.3688
 133   1.0000      -0.269677        -7.3383
 134   1.0000      -0.268596        -7.3089
 135   1.0000      -0.267285        -7.2732
 136   1.0000      -0.265096        -7.2136
 137   1.0000      -0.264467        -7.1965
 138   1.0000      -0.263338        -7.1658
 139   1.0000      -0.263312        -7.1651
 140   1.0000      -0.261971        -7.1286
 141   1.0000      -0.259425        -7.0593
 142   1.0000      -0.258372        -7.0307
 143   1.0000      -0.257602        -7.0097
 144   1.0000      -0.255583        -6.9548
 145   1.0000      -0.255391        -6.9496
 146   1.0000      -0.253902        -6.9090
 147   1.0000      -0.253463        -6.8971
 148   1.0000      -0.251073        -6.8320
 149   1.0000      -0.250301        -6.8110
 150   1.0000      -0.248927        -6.7737
 151   1.0000      -0.247746        -6.7415
 152   1.0000      -0.239165        -6.5080
 153   1.0000      -0.224101        -6.0981
 154   1.0000      -0.209839        -5.7100
 155   1.0000      -0.208807        -5.6819
 156   1.0000      -0.198405        -5.3989
 157   0.0000      -0.195623        -5.3232
 158   0.0000      -0.141752        -3.8573
 159   0.0000      -0.136004        -3.7008
 160   0.0000      -0.128835        -3.5058
 161   0.0000      -0.121646        -3.3101

                 SPIN DOWN ORBITALS
  NO   OCC          E(Eh)            E(eV)
   0   1.0000    -255.636504     -6956.2229
   1   1.0000     -29.855102      -812.3986
   2   1.0000     -25.708191      -699.5554
   3   1.0000     -25.705465      -699.4813
   4   1.0000     -25.698314      -699.2867
   5   1.0000      -4.127752      -112.3218
   6   1.0000      -4.127718      -112.3209
   7   1.0000      -4.125168      -112.2515
   8   1.0000      -4.125102      -112.2497
   9   1.0000      -4.124813      -112.2419
  10   1.0000      -4.122362      -112.1752
  11   1.0000      -4.122308      -112.1737
  12   1.0000      -4.121740      -112.1582
  13   1.0000      -4.121718      -112.1577
  14   1.0000      -4.120409      -112.1220
  15   1.0000      -4.118087      -112.0588
  16   1.0000      -4.116055      -112.0035
  17   1.0000      -4.112539      -111.9079
  18   1.0000      -4.111963      -111.8922
  19   1.0000      -4.111894      -111.8903
  20   1.0000      -3.340360       -90.8958
  21   1.0000      -2.315681       -63.0129
  22   1.0000      -2.315647       -63.0120
  23   1.0000      -2.314566       -62.9826
  24   1.0000      -2.314371       -62.9772
  25   1.0000      -2.313590       -62.9560
  26   1.0000      -2.313567       -62.9554
  27   1.0000      -2.312225       -62.9188
  28   1.0000      -2.311990       -62.9124
  29   1.0000      -2.311900       -62.9100
  30   1.0000      -2.311596       -62.9017
  31   1.0000      -2.311107       -62.8884
  32   1.0000      -2.311079       -62.8876
  33   1.0000      -2.310617       -62.8751
  34   1.0000      -2.310037       -62.8593
  35   1.0000      -2.309928       -62.8563
  36   1.0000      -2.309409       -62.8422
  37   1.0000      -2.308693       -62.8227
  38   1.0000      -2.308659       -62.8218
  39   1.0000      -2.308133       -62.8075
  40   1.0000      -2.308050       -62.8052
  41   1.0000      -2.307679       -62.7952
  42   1.0000      -2.307625       -62.7937
  43   1.0000      -2.307101       -62.7794
  44   1.0000      -2.305594       -62.7384
  45   1.0000      -2.305547       -62.7371
  46   1.0000      -2.305435       -62.7341
  47   1.0000      -2.304896       -62.7194
  48   1.0000      -2.304875       -62.7188
  49   1.0000      -2.304100       -62.6978
  50   1.0000      -2.304004       -62.6951
  51   1.0000      -2.303841       -62.6907
  52   1.0000      -2.303836       -62.6906
  53   1.0000      -2.302885       -62.6647
  54   1.0000      -2.302878       -62.6645
  55   1.0000      -2.302047       -62.6419
  56   1.0000      -2.301177       -62.6182
  57   1.0000      -2.299996       -62.5861
  58   1.0000      -2.299549       -62.5739
  59   1.0000      -2.298492       -62.5452
  60   1.0000      -2.298104       -62.5346
  61   1.0000      -2.298080       -62.5339
  62   1.0000      -2.297755       -62.5251
  63   1.0000      -2.297069       -62.5064
  64   1.0000      -2.293525       -62.4100
  65   1.0000      -2.292628       -62.3856
  66   1.0000      -2.115964       -57.5783
  67   1.0000      -2.112516       -57.4845
  68   1.0000      -2.097862       -57.0857
  69   1.0000      -0.443149       -12.0587
  70   1.0000      -0.399126       -10.8608
  71   1.0000      -0.398413       -10.8414
  72   1.0000      -0.395642       -10.7660
  73   1.0000      -0.385371       -10.4865
  74   1.0000      -0.380044       -10.3415
  75   1.0000      -0.379030       -10.3139
  76   1.0000      -0.376539       -10.2461
  77   1.0000      -0.373929       -10.1751
  78   1.0000      -0.371440       -10.1074
  79   1.0000      -0.370678       -10.0867
  80   1.0000      -0.367716       -10.0061
  81   1.0000      -0.365366        -9.9421
  82   1.0000      -0.364942        -9.9306
  83   1.0000      -0.364135        -9.9086
  84   1.0000      -0.360149        -9.8001
  85   1.0000      -0.359763        -9.7897
  86   1.0000      -0.357234        -9.7208
  87   1.0000      -0.357191        -9.7197
  88   1.0000      -0.354982        -9.6596
  89   1.0000      -0.354653        -9.6506
  90   1.0000      -0.353236        -9.6120
  91   1.0000      -0.351781        -9.5725
  92   1.0000      -0.350417        -9.5353
  93   1.0000      -0.348057        -9.4711
  94   1.0000      -0.346791        -9.4367
  95   1.0000      -0.340606        -9.2683
  96   1.0000      -0.340527        -9.2662
  97   1.0000      -0.337609        -9.1868
  98   1.0000      -0.337112        -9.1733
  99   1.0000      -0.335492        -9.1292
 100   1.0000      -0.329219        -8.9585
 101   1.0000      -0.328040        -8.9264
 102   1.0000      -0.322487        -8.7753
 103   1.0000      -0.320028        -8.7084
 104   1.0000      -0.317270        -8.6334
 105   1.0000      -0.314138        -8.5481
 106   1.0000      -0.308638        -8.3985
 107   1.0000      -0.306897        -8.3511
 108   1.0000      -0.303582        -8.2609
 109   1.0000      -0.302181        -8.2228
 110   1.0000      -0.301532        -8.2051
 111   1.0000      -0.295376        -8.0376
 112   1.0000      -0.293416        -7.9842
 113   1.0000      -0.292752        -7.9662
 114   1.0000      -0.291437        -7.9304
 115   1.0000      -0.288811        -7.8589
 116   1.0000      -0.288235        -7.8433
 117   1.0000      -0.286400        -7.7933
 118   1.0000      -0.285386        -7.7657
 119   1.0000      -0.283750        -7.7212
 120   1.0000      -0.283572        -7.7164
 121   1.0000      -0.282029        -7.6744
 122   1.0000      -0.281813        -7.6685
 123   1.0000      -0.280982        -7.6459
 124   1.0000      -0.279922        -7.6171
 125   1.0000      -0.279806        -7.6139
 126   1.0000      -0.275532        -7.4976
 127   1.0000      -0.275392        -7.4938
 128   1.0000      -0.274975        -7.4825
 129   1.0000      -0.273541        -7.4434
 130   1.0000      -0.271760        -7.3950
 131   1.0000      -0.269173        -7.3246
 132   1.0000      -0.267157        -7.2697
 133   1.0000      -0.265298        -7.2191
 134   1.0000      -0.264193        -7.1891
 135   1.0000      -0.264077        -7.1859
 136   1.0000      -0.262180        -7.1343
 137   1.0000      -0.260016        -7.0754
 138   1.0000      -0.259362        -7.0576
 139   1.0000      -0.257235        -6.9997
 140   1.0000      -0.256371        -6.9762
 141   1.0000      -0.255579        -6.9547
 142   1.0000      -0.254430        -6.9234
 143   1.0000      -0.252809        -6.8793
 144   1.0000      -0.252518        -6.8714
 145   1.0000      -0.250101        -6.8056
 146   1.0000      -0.249215        -6.7815
 147   1.0000      -0.240240        -6.5373
 148   1.0000      -0.229847        -6.2545
 149   1.0000      -0.217697        -5.9238
 150   1.0000      -0.214146        -5.8272
 151   1.0000      -0.211215        -5.7475
 152   1.0000      -0.209598        -5.7035
 153   1.0000      -0.181676        -4.9437
 154   0.0000      -0.155979        -4.2444
 155   0.0000      -0.152866        -4.1597
 156   0.0000      -0.144235        -3.9248
 157   0.0000      -0.138693        -3.7740
 158   0.0000      -0.134027        -3.6471

MULLIKEN ATOMIC CHARGES AND SPIN POPULATIONS
--------------------------------------------
   0 Au:    0.112285    0.009051
   1 Au:    0.391809   -0.019261
   2 Au:    0.042667    0.034705
   3 Au:    0.155944   -0.111379
   4 Au:    0.319581   -0.004889
   5 Au:   -0.212439    0.065189
   6 Au:    0.154376   -0.102716
   7 Au:    0.236447    0.032880
   8 Au:    0.045280    0.032961
   9 Au:    0.318999   -0.004106
  10 Au:   -0.210237    0.065759
  11 Au:    0.108100    0.009972
  12 Au:    0.393807   -0.138832
  13 Au:    0.209726   -0.050771
  14 Au:    0.236414    0.032737
  15 Fe:   -2.302759    3.148701
Sum of atomic charges         :    0.0000000

LOEWDIN ATOMIC CHARGES AND SPIN POPULATIONS
-------------------------------------------
   0 Au:   -0.016309   -0.010325
   1 Au:    0.085582   -0.006048
   2 Au:    0.040189    0.006045
   3 Au:    0.015856   -0.058873
   4 Au:    0.078700   -0.025743
   5 Au:   -0.028919    0.013284
   6 Au:    0.035163   -0.055748
   7 Au:    0.050275   -0.003219
   8 Au:    0.040407    0.005578
   9 Au:    0.078660   -0.025417
  10 Au:   -0.028687    0.013597
  11 Au:   -0.017330   -0.010009
  12 Au:    0.084408   -0.059117
  13 Au:    0.039342   -0.048250
  14 Au:    0.050094   -0.003290
  15 Fe:   -0.507430    3.267535

  Mayer bond orders larger than 0.100000
B(  0-Au,  1-Au) :   0.2398 B(  0-Au,  2-Au) :   0.3538 B(  0-Au,  3-Au) :   0.2827
B(  0-Au,  5-Au) :   0.2723 B(  0-Au, 11-Au) :   0.1671 B(  0-Au, 15-Fe) :   0.1141
B(  1-Au,  5-Au) :   0.2989 B(  1-Au, 10-Au) :   0.2991 B(  1-Au, 11-Au) :   0.2420
B(  2-Au,  3-Au) :   0.1978 B(  2-Au,  6-Au) :   0.1384 B(  2-Au,  7-Au) :   0.2528
B(  2-Au, 15-Fe) :   0.5459 B(  3-Au,  6-Au) :   0.2900 B(  3-Au,  8-Au) :   0.1971
B(  3-Au, 11-Au) :   0.2840 B(  3-Au, 15-Fe) :   0.1982 B(  4-Au,  5-Au) :   0.3380
B(  4-Au,  7-Au) :   0.2121 B(  4-Au, 12-Au) :   0.1424 B(  4-Au, 13-Au) :   0.1603
B(  4-Au, 15-Fe) :   0.4254 B(  5-Au, 10-Au) :   0.1441 B(  5-Au, 12-Au) :   0.2010
B(  5-Au, 15-Fe) :   0.4486 B(  6-Au,  7-Au) :   0.2563 B(  6-Au,  8-Au) :   0.1386
B(  6-Au, 14-Au) :   0.2569 B(  6-Au, 15-Fe) :   0.3313 B(  7-Au, 13-Au) :   0.1967
B(  7-Au, 15-Fe) :   0.3629 B(  8-Au, 11-Au) :   0.3542 B(  8-Au, 14-Au) :   0.2528
B(  8-Au, 15-Fe) :   0.5459 B(  9-Au, 10-Au) :   0.3395 B(  9-Au, 12-Au) :   0.1396
B(  9-Au, 13-Au) :   0.1613 B(  9-Au, 14-Au) :   0.2107 B(  9-Au, 15-Fe) :   0.4260
B( 10-Au, 11-Au) :   0.2706 B( 10-Au, 12-Au) :   0.1998 B( 10-Au, 15-Fe) :   0.4489
B( 11-Au, 15-Fe) :   0.1153 B( 12-Au, 13-Au) :   0.1937 B( 12-Au, 15-Fe) :   0.3803
B( 13-Au, 14-Au) :   0.1974 B( 13-Au, 15-Fe) :   0.3835 B( 14-Au, 15-Fe) :   0.3622

FINAL SINGLE POINT ENERGY     -3301.426361869720

DIPOLE MOMENT
-------------
                                X             Y             Z
Electronic contribution:     13.16401      15.65956      -5.48640
Nuclear contribution   :    -13.36478     -15.79734       5.45239
                        -----------------------------------------
Total Dipole Moment    :     -0.20078      -0.13778      -0.03401
                        -----------------------------------------
Magnitude (a.u.)       :      0.24587
Magnitude (Debye)      :      0.62495

Rotational constants in cm-1:     0.001113     0.000903     0.000829
Rotational constants in MHz :    33.363074    27.076883    24.863345

                             ****ORCA TERMINATED NORMALLY****
TOTAL RUN TIME: 0 days 0 hours 10 minutes 0 seconds 607 msec
