                         Program Version 5.0.3 -  RELEASE  -
|  1> !SC-NEVPT2 def2-TZVP def2-TZVP/C
|  2> !MOREAD RIJCOSX def2/J
|  3> %maxcore 4000
|  4> %moinp "casscf.gbw"
|  5> %pal nprocs 8 end
|  6>
|  7> %casscf
|  8>  mult 5,3
|  9>  bweight 1,1
| 10>  nroots 5,45
| 11>  nel 6
| 12>  norb 5
| 13>  ptsettings
| 14>   d4tpre 1e-14 # default = 1e-10
| 15>   d3tpre 1e-14
| 16>  end
| 17>  rel
| 18>    dosoc true
| 19>    gtensor true
| 20>  end
| 21> end
| 22>
| 23>
| 24> *xyzfile 0 5 pbe.xyz
| 25>
| 26>
| 27>                          ****END OF INPUT****

CARTESIAN COORDINATES (ANGSTROEM)
---------------------------------
  Au    10.903102    5.430103    8.984597
  Au    10.114515    4.555455    6.441033
  Au     8.959549    3.418794    8.801176
  Au     9.681038    7.740477    9.497642
  Au     8.250496    6.331010    5.328916
  Au     7.703366    9.624382    9.439648
  Au     7.888660    8.349704    7.029397
  Au     6.393741    4.503344    9.122401
  Au     6.632525    7.114976    9.591009
  Au     7.316866    3.973584    6.527665
  Cr     8.412237    5.957169    8.019264

 Total Charge           Charge          ....    0
 Multiplicity           Mult            ....    5
 Number of Electrons    NEL             ....  214
 Basis Dimension        Dim             ....  445

ORBITAL ENERGIES
----------------

  NO   OCC          E(Eh)            E(eV)
   0   2.0000    -220.575404     -6002.1619
   1   2.0000     -26.429090      -719.1721
   2   2.0000     -22.360342      -608.4558
   3   2.0000     -22.355783      -608.3318
   4   2.0000     -22.355768      -608.3314
   5   2.0000      -4.709243      -128.1450
   6   2.0000      -4.709056      -128.1399
   7   2.0000      -4.709000      -128.1384
   8   2.0000      -4.707172      -128.0887
   9   2.0000      -4.707124      -128.0874
  10   2.0000      -4.707096      -128.0866
  11   2.0000      -4.699842      -127.8892
  12   2.0000      -4.699763      -127.8870
  13   2.0000      -4.699760      -127.8870
  14   2.0000      -4.699407      -127.8774
  15   2.0000      -3.470393       -94.4342
  16   2.0000      -2.750477       -74.8443
  17   2.0000      -2.748312       -74.7854
  18   2.0000      -2.748296       -74.7849
  19   2.0000      -2.747994       -74.7767
  20   2.0000      -2.747370       -74.7597
  21   2.0000      -2.747350       -74.7592
  22   2.0000      -2.746181       -74.7274
  23   2.0000      -2.745980       -74.7219
  24   2.0000      -2.745973       -74.7217
  25   2.0000      -2.744501       -74.6817
  26   2.0000      -2.744108       -74.6710
  27   2.0000      -2.743877       -74.6647
  28   2.0000      -2.743850       -74.6640
  29   2.0000      -2.741843       -74.6093
  30   2.0000      -2.741794       -74.6080
  31   2.0000      -2.739420       -74.5434
  32   2.0000      -2.739397       -74.5428
  33   2.0000      -2.738758       -74.5254
  34   2.0000      -2.737002       -74.4776
  35   2.0000      -2.736663       -74.4684
  36   2.0000      -2.736632       -74.4675
  37   2.0000      -2.735537       -74.4378
  38   2.0000      -2.734073       -74.3979
  39   2.0000      -2.734030       -74.3967
  40   2.0000      -2.732730       -74.3614
  41   2.0000      -2.732555       -74.3566
  42   2.0000      -2.732498       -74.3551
  43   2.0000      -2.732336       -74.3506
  44   2.0000      -2.731836       -74.3370
  45   2.0000      -2.731821       -74.3366
  46   2.0000      -2.229323       -60.6630
  47   2.0000      -2.223567       -60.5063
  48   2.0000      -2.223558       -60.5061
  49   2.0000      -0.553938       -15.0734
  50   2.0000      -0.546752       -14.8779
  51   2.0000      -0.540460       -14.7067
  52   2.0000      -0.540444       -14.7062
  53   2.0000      -0.531384       -14.4597
  54   2.0000      -0.531265       -14.4565
  55   2.0000      -0.529028       -14.3956
  56   2.0000      -0.527307       -14.3488
  57   2.0000      -0.522398       -14.2152
  58   2.0000      -0.515988       -14.0407
  59   2.0000      -0.515957       -14.0399
  60   2.0000      -0.508058       -13.8249
  61   2.0000      -0.507963       -13.8224
  62   2.0000      -0.506458       -13.7814
  63   2.0000      -0.500732       -13.6256
  64   2.0000      -0.500686       -13.6244
  65   2.0000      -0.498289       -13.5591
  66   2.0000      -0.496861       -13.5203
  67   2.0000      -0.496811       -13.5189
  68   2.0000      -0.488862       -13.3026
  69   2.0000      -0.488792       -13.3007
  70   2.0000      -0.485241       -13.2041
  71   2.0000      -0.477580       -12.9956
  72   2.0000      -0.477475       -12.9928
  73   2.0000      -0.467166       -12.7122
  74   2.0000      -0.461437       -12.5563
  75   2.0000      -0.461391       -12.5551
  76   2.0000      -0.456953       -12.4343
  77   2.0000      -0.456906       -12.4330
  78   2.0000      -0.455920       -12.4062
  79   2.0000      -0.455869       -12.4048
  80   2.0000      -0.452634       -12.3168
  81   2.0000      -0.444489       -12.0952
  82   2.0000      -0.444434       -12.0937
  83   2.0000      -0.444352       -12.0914
  84   2.0000      -0.443790       -12.0761
  85   2.0000      -0.442123       -12.0308
  86   2.0000      -0.442081       -12.0296
  87   2.0000      -0.434627       -11.8268
  88   2.0000      -0.431865       -11.7517
  89   2.0000      -0.429956       -11.6997
  90   2.0000      -0.429948       -11.6995
  91   2.0000      -0.425999       -11.5920
  92   2.0000      -0.424885       -11.5617
  93   2.0000      -0.424840       -11.5605
  94   2.0000      -0.423717       -11.5299
  95   2.0000      -0.413457       -11.2507
  96   2.0000      -0.413433       -11.2501
  97   2.0000      -0.402340       -10.9482
  98   2.0000      -0.394111       -10.7243
  99   2.0000      -0.394094       -10.7239
 100   2.0000      -0.355738        -9.6801
 101   2.0000      -0.299701        -8.1553
 102   2.0000      -0.299604        -8.1526
 103   2.0000      -0.226981        -6.1765
 104   1.2000      -0.146959        -3.9990
 105   1.2000      -0.130755        -3.5580
 106   1.2000      -0.154036        -4.1915
 107   1.2000      -0.147458        -4.0125
 108   1.2000      -0.154085        -4.1929
 109   0.0000       0.000897         0.0244
 110   0.0000       0.003791         0.1032
 111   0.0000       0.003838         0.1044
 112   0.0000       0.024769         0.6740
 113   0.0000       0.050738         1.3806

MULLIKEN ATOMIC CHARGES AND SPIN DENSITIES
------------------------------------------
   0 Au:    0.219622    0.031702
   1 Au:    0.518399    0.063122
   2 Au:    0.518563    0.063165
   3 Au:    0.137847    0.058271
   4 Au:    0.219351    0.031601
   5 Au:    0.241773    0.019166
   6 Au:    0.139138    0.057767
   7 Au:    0.219466    0.031583
   8 Au:    0.138821    0.057829
   9 Au:    0.517922    0.062986
  10 Cr:   -2.870903    2.522808
Sum of atomic charges       :    0.0000000

LOEWDIN ATOMIC CHARGES AND SPIN DENSITIES
-----------------------------------------
   0 Au:    0.106100    0.075676
   1 Au:    0.079568    0.080811
   2 Au:    0.079589    0.080847
   3 Au:    0.041598    0.070680
   4 Au:    0.106086    0.075363
   5 Au:    0.125564    0.030736
   6 Au:    0.041505    0.070532
   7 Au:    0.105994    0.075406
   8 Au:    0.041561    0.070534
   9 Au:    0.079346    0.080657
  10 Cr:   -0.806909    2.288757

  Mayer bond orders larger than 0.100000
B(  0-Au,  1-Au) :   0.1599 B(  0-Au,  2-Au) :   0.1600 B(  0-Au,  3-Au) :   0.4194
B(  0-Au, 10-Cr) :   0.4558 B(  1-Au,  4-Au) :   0.1597 B(  1-Au, 10-Cr) :   0.4886
B(  2-Au,  7-Au) :   0.1597 B(  2-Au, 10-Cr) :   0.4886 B(  3-Au,  5-Au) :   0.2446
B(  3-Au, 10-Cr) :   0.5497 B(  4-Au,  6-Au) :   0.4193 B(  4-Au,  9-Au) :   0.1596
B(  4-Au, 10-Cr) :   0.4562 B(  5-Au,  6-Au) :   0.2451 B(  5-Au,  8-Au) :   0.2449
B(  5-Au, 10-Cr) :   0.4449 B(  6-Au, 10-Cr) :   0.5494 B(  7-Au,  8-Au) :   0.4194
B(  7-Au,  9-Au) :   0.1594 B(  7-Au, 10-Cr) :   0.4562 B(  8-Au, 10-Cr) :   0.5494
B(  9-Au, 10-Cr) :   0.4887

FINAL SINGLE POINT ENERGY     -2396.479281472868

DIPOLE MOMENT
-------------
                                X             Y             Z
Electronic contribution:     -0.93783       4.96858       1.93071
Nuclear contribution   :      0.97345      -5.13838      -1.99520
                        -----------------------------------------
Total Dipole Moment    :      0.03562      -0.16980      -0.06449
                        -----------------------------------------
Magnitude (a.u.)       :      0.18509
Magnitude (Debye)      :      0.47046

Rotational constants in cm-1:     0.002191     0.001394     0.001393
Rotational constants in MHz :    65.688799    41.789289    41.773619

                             ****ORCA TERMINATED NORMALLY****
TOTAL RUN TIME: 0 days 0 hours 25 minutes 13 seconds 142 msec
