                         Program Version 5.0.3 -  RELEASE  -
|  1> %pal nprocs 1 end
|  2>
|  3> !PBE def2-TZVP OPT UNO
|  4> !SLOWCONV KDIIS
|  5>
|  6> %geom maxiter 300 end
|  7>
|  8> *xyzfile 0 5 7.xyz                           ****END OF INPUT****
 Total Charge           Charge          ....    0
 Multiplicity           Mult            ....    5
 Number of Electrons    NEL             ....  290
FINAL SINGLE POINT ENERGY     -2945.797605602085
FINAL SINGLE POINT ENERGY     -2945.800929836770
FINAL SINGLE POINT ENERGY     -2945.802913106798
FINAL SINGLE POINT ENERGY     -2945.804499568508
FINAL SINGLE POINT ENERGY     -2945.805711427013
FINAL SINGLE POINT ENERGY     -2945.806812049639
FINAL SINGLE POINT ENERGY     -2945.807976466934
FINAL SINGLE POINT ENERGY     -2945.809296928438
FINAL SINGLE POINT ENERGY     -2945.810680528228
FINAL SINGLE POINT ENERGY     -2945.812002825801
FINAL SINGLE POINT ENERGY     -2945.832242629224
FINAL SINGLE POINT ENERGY     -2945.832872989547
FINAL SINGLE POINT ENERGY     -2945.833409048677
FINAL SINGLE POINT ENERGY     -2945.833828675758
FINAL SINGLE POINT ENERGY     -2945.834151688637
FINAL SINGLE POINT ENERGY     -2945.834349021878
FINAL SINGLE POINT ENERGY     -2945.834390468960
FINAL SINGLE POINT ENERGY     -2945.834401621150
FINAL SINGLE POINT ENERGY     -2945.834406650484
                    ***********************HURRAY********************

CARTESIAN COORDINATES (ANGSTROEM)
---------------------------------
  Au     9.145543    9.237792    5.880054
  Au     7.964487    6.313360    9.507848
  Au     6.178756    8.185521   10.018518
  Au     5.641031    6.270815    7.877025
  Au     5.821215   10.748823    9.142570
  Au     4.654463    7.569210    5.551415
  Au     7.940269   11.039934    7.452347
  Au     4.334213    8.878692    7.819234
  Au     9.190346    6.719805    6.900815
  Au    10.065501    4.819547    8.669165
  Au     7.702966    4.369543    7.313801
  Au     7.474886    7.344168    4.872079
  Au     5.469584    6.563915    3.169354
  Au     6.040668    4.978598    5.353148
  Cr     7.013087    8.564630    7.457202

 Multiplicity           Mult            ....    5
 Number of Electrons    NEL             ....  290
 Basis Dimension        Dim             ....  605

ORBITAL ENERGIES
----------------
                 SPIN UP ORBITALS
  NO   OCC          E(Eh)            E(eV)
   0   1.0000    -214.483891     -5836.4034
   1   1.0000     -24.282825      -660.7693
   2   1.0000     -20.648212      -561.8664
   3   1.0000     -20.647481      -561.8465
   4   1.0000     -20.641580      -561.6859
   5   1.0000      -4.034703      -109.7898
   6   1.0000      -4.034545      -109.7856
   7   1.0000      -4.034295      -109.7787
   8   1.0000      -4.032000      -109.7163
   9   1.0000      -4.025766      -109.5467
  10   1.0000      -4.025669      -109.5440
  11   1.0000      -4.023426      -109.4830
  12   1.0000      -4.023310      -109.4798
  13   1.0000      -4.021325      -109.4258
  14   1.0000      -4.021244      -109.4236
  15   1.0000      -4.020950      -109.4156
  16   1.0000      -4.020866      -109.4133
  17   1.0000      -4.016239      -109.2874
  18   1.0000      -4.014699      -109.2455
  19   1.0000      -2.792851       -75.9973
  20   1.0000      -2.255790       -61.3832
  21   1.0000      -2.252673       -61.2983
  22   1.0000      -2.250715       -61.2451
  23   1.0000      -2.248121       -61.1745
  24   1.0000      -2.247360       -61.1538
  25   1.0000      -2.245562       -61.1048
  26   1.0000      -2.245335       -61.0987
  27   1.0000      -2.245083       -61.0918
  28   1.0000      -2.244851       -61.0855
  29   1.0000      -2.244579       -61.0781
  30   1.0000      -2.244294       -61.0703
  31   1.0000      -2.244126       -61.0658
  32   1.0000      -2.242787       -61.0293
  33   1.0000      -2.241742       -61.0009
  34   1.0000      -2.241040       -60.9818
  35   1.0000      -2.240170       -60.9581
  36   1.0000      -2.240109       -60.9565
  37   1.0000      -2.239789       -60.9477
  38   1.0000      -2.238892       -60.9233
  39   1.0000      -2.237859       -60.8952
  40   1.0000      -2.237238       -60.8783
  41   1.0000      -2.235689       -60.8362
  42   1.0000      -2.234651       -60.8079
  43   1.0000      -2.234436       -60.8021
  44   1.0000      -2.234190       -60.7954
  45   1.0000      -2.233527       -60.7774
  46   1.0000      -2.232815       -60.7580
  47   1.0000      -2.232170       -60.7404
  48   1.0000      -2.232154       -60.7400
  49   1.0000      -2.231870       -60.7323
  50   1.0000      -2.231781       -60.7298
  51   1.0000      -2.231768       -60.7295
  52   1.0000      -2.231630       -60.7257
  53   1.0000      -2.231486       -60.7218
  54   1.0000      -2.231248       -60.7153
  55   1.0000      -2.230932       -60.7068
  56   1.0000      -2.230609       -60.6980
  57   1.0000      -2.230548       -60.6963
  58   1.0000      -2.229928       -60.6794
  59   1.0000      -2.227200       -60.6052
  60   1.0000      -2.226255       -60.5795
  61   1.0000      -2.220101       -60.4120
  62   1.0000      -1.786435       -48.6114
  63   1.0000      -1.784869       -48.5687
  64   1.0000      -1.777013       -48.3550
  65   1.0000      -0.425022       -11.5654
  66   1.0000      -0.396218       -10.7816
  67   1.0000      -0.394504       -10.7350
  68   1.0000      -0.383738       -10.4420
  69   1.0000      -0.373501       -10.1635
  70   1.0000      -0.371528       -10.1098
  71   1.0000      -0.366526        -9.9737
  72   1.0000      -0.359143        -9.7728
  73   1.0000      -0.357537        -9.7291
  74   1.0000      -0.352864        -9.6019
  75   1.0000      -0.351425        -9.5628
  76   1.0000      -0.351310        -9.5596
  77   1.0000      -0.348253        -9.4764
  78   1.0000      -0.345951        -9.4138
  79   1.0000      -0.339100        -9.2274
  80   1.0000      -0.338074        -9.1995
  81   1.0000      -0.335839        -9.1387
  82   1.0000      -0.331336        -9.0161
  83   1.0000      -0.329464        -8.9652
  84   1.0000      -0.327966        -8.9244
  85   1.0000      -0.324721        -8.8361
  86   1.0000      -0.324486        -8.8297
  87   1.0000      -0.321309        -8.7433
  88   1.0000      -0.320559        -8.7229
  89   1.0000      -0.317053        -8.6275
  90   1.0000      -0.316141        -8.6026
  91   1.0000      -0.313628        -8.5342
  92   1.0000      -0.313355        -8.5268
  93   1.0000      -0.306845        -8.3497
  94   1.0000      -0.306558        -8.3419
  95   1.0000      -0.306269        -8.3340
  96   1.0000      -0.306008        -8.3269
  97   1.0000      -0.304031        -8.2731
  98   1.0000      -0.298476        -8.1219
  99   1.0000      -0.295528        -8.0417
 100   1.0000      -0.295332        -8.0364
 101   1.0000      -0.292048        -7.9470
 102   1.0000      -0.291254        -7.9254
 103   1.0000      -0.289041        -7.8652
 104   1.0000      -0.288529        -7.8513
 105   1.0000      -0.285631        -7.7724
 106   1.0000      -0.284686        -7.7467
 107   1.0000      -0.284373        -7.7382
 108   1.0000      -0.281049        -7.6477
 109   1.0000      -0.276488        -7.5236
 110   1.0000      -0.276172        -7.5150
 111   1.0000      -0.275330        -7.4921
 112   1.0000      -0.275164        -7.4876
 113   1.0000      -0.274624        -7.4729
 114   1.0000      -0.272349        -7.4110
 115   1.0000      -0.271143        -7.3782
 116   1.0000      -0.270105        -7.3499
 117   1.0000      -0.267277        -7.2730
 118   1.0000      -0.266783        -7.2595
 119   1.0000      -0.265084        -7.2133
 120   1.0000      -0.264798        -7.2055
 121   1.0000      -0.263158        -7.1609
 122   1.0000      -0.261618        -7.1190
 123   1.0000      -0.260203        -7.0805
 124   1.0000      -0.258523        -7.0348
 125   1.0000      -0.258281        -7.0282
 126   1.0000      -0.256380        -6.9765
 127   1.0000      -0.255747        -6.9592
 128   1.0000      -0.252673        -6.8756
 129   1.0000      -0.252384        -6.8677
 130   1.0000      -0.248150        -6.7525
 131   1.0000      -0.247628        -6.7383
 132   1.0000      -0.245427        -6.6784
 133   1.0000      -0.244736        -6.6596
 134   1.0000      -0.241710        -6.5773
 135   1.0000      -0.240636        -6.5480
 136   1.0000      -0.239173        -6.5082
 137   1.0000      -0.233299        -6.3484
 138   1.0000      -0.231259        -6.2929
 139   1.0000      -0.226960        -6.1759
 140   1.0000      -0.217847        -5.9279
 141   1.0000      -0.216713        -5.8971
 142   1.0000      -0.214665        -5.8413
 143   1.0000      -0.204480        -5.5642
 144   1.0000      -0.204417        -5.5625
 145   1.0000      -0.195477        -5.3192
 146   1.0000      -0.191527        -5.2117
 147   0.0000      -0.175320        -4.7707
 148   0.0000      -0.151892        -4.1332
 149   0.0000      -0.147826        -4.0225
 150   0.0000      -0.130599        -3.5538
 151   0.0000      -0.126243        -3.4352

                 SPIN DOWN ORBITALS
  NO   OCC          E(Eh)            E(eV)
   0   1.0000    -214.483436     -5836.3910
   1   1.0000     -24.232884      -659.4103
   2   1.0000     -20.612555      -560.8961
   3   1.0000     -20.610932      -560.8520
   4   1.0000     -20.599328      -560.5362
   5   1.0000      -4.034280      -109.7783
   6   1.0000      -4.033776      -109.7646
   7   1.0000      -4.033542      -109.7583
   8   1.0000      -4.031154      -109.6933
   9   1.0000      -4.024944      -109.5243
  10   1.0000      -4.024842      -109.5215
  11   1.0000      -4.022902      -109.4687
  12   1.0000      -4.022783      -109.4655
  13   1.0000      -4.021275      -109.4245
  14   1.0000      -4.021155      -109.4212
  15   1.0000      -4.020864      -109.4133
  16   1.0000      -4.020812      -109.4119
  17   1.0000      -4.015959      -109.2798
  18   1.0000      -4.014129      -109.2300
  19   1.0000      -2.657331       -72.3097
  20   1.0000      -2.254956       -61.3605
  21   1.0000      -2.251822       -61.2752
  22   1.0000      -2.250023       -61.2262
  23   1.0000      -2.247320       -61.1527
  24   1.0000      -2.247160       -61.1483
  25   1.0000      -2.244870       -61.0860
  26   1.0000      -2.244585       -61.0783
  27   1.0000      -2.244333       -61.0714
  28   1.0000      -2.244125       -61.0658
  29   1.0000      -2.243859       -61.0585
  30   1.0000      -2.243397       -61.0459
  31   1.0000      -2.243244       -61.0418
  32   1.0000      -2.242215       -61.0138
  33   1.0000      -2.241513       -60.9947
  34   1.0000      -2.240169       -60.9581
  35   1.0000      -2.239622       -60.9432
  36   1.0000      -2.239393       -60.9370
  37   1.0000      -2.238904       -60.9237
  38   1.0000      -2.237819       -60.8941
  39   1.0000      -2.237430       -60.8836
  40   1.0000      -2.236948       -60.8704
  41   1.0000      -2.235533       -60.8320
  42   1.0000      -2.234150       -60.7943
  43   1.0000      -2.233911       -60.7878
  44   1.0000      -2.233482       -60.7761
  45   1.0000      -2.232798       -60.7575
  46   1.0000      -2.232709       -60.7551
  47   1.0000      -2.231949       -60.7344
  48   1.0000      -2.231824       -60.7310
  49   1.0000      -2.231563       -60.7239
  50   1.0000      -2.231488       -60.7219
  51   1.0000      -2.231383       -60.7190
  52   1.0000      -2.231340       -60.7178
  53   1.0000      -2.231227       -60.7148
  54   1.0000      -2.231087       -60.7110
  55   1.0000      -2.230760       -60.7021
  56   1.0000      -2.230515       -60.6954
  57   1.0000      -2.230125       -60.6848
  58   1.0000      -2.229963       -60.6804
  59   1.0000      -2.226844       -60.5955
  60   1.0000      -2.225954       -60.5713
  61   1.0000      -2.219445       -60.3942
  62   1.0000      -1.660848       -45.1940
  63   1.0000      -1.656491       -45.0754
  64   1.0000      -1.629765       -44.3482
  65   1.0000      -0.422210       -11.4889
  66   1.0000      -0.393917       -10.7190
  67   1.0000      -0.393743       -10.7143
  68   1.0000      -0.379094       -10.3157
  69   1.0000      -0.372754       -10.1432
  70   1.0000      -0.370043       -10.0694
  71   1.0000      -0.364907        -9.9296
  72   1.0000      -0.357499        -9.7281
  73   1.0000      -0.354852        -9.6560
  74   1.0000      -0.350870        -9.5477
  75   1.0000      -0.349918        -9.5218
  76   1.0000      -0.349744        -9.5170
  77   1.0000      -0.346731        -9.4350
  78   1.0000      -0.344899        -9.3852
  79   1.0000      -0.338020        -9.1980
  80   1.0000      -0.335488        -9.1291
  81   1.0000      -0.335420        -9.1272
  82   1.0000      -0.330715        -8.9992
  83   1.0000      -0.327761        -8.9188
  84   1.0000      -0.327116        -8.9013
  85   1.0000      -0.323304        -8.7975
  86   1.0000      -0.323022        -8.7899
  87   1.0000      -0.320592        -8.7238
  88   1.0000      -0.318797        -8.6749
  89   1.0000      -0.314834        -8.5671
  90   1.0000      -0.313948        -8.5430
  91   1.0000      -0.311573        -8.4783
  92   1.0000      -0.310352        -8.4451
  93   1.0000      -0.306356        -8.3364
  94   1.0000      -0.305487        -8.3127
  95   1.0000      -0.303896        -8.2694
  96   1.0000      -0.302489        -8.2311
  97   1.0000      -0.301149        -8.1947
  98   1.0000      -0.295646        -8.0449
  99   1.0000      -0.294626        -8.0172
 100   1.0000      -0.294073        -8.0021
 101   1.0000      -0.290625        -7.9083
 102   1.0000      -0.290499        -7.9049
 103   1.0000      -0.288090        -7.8393
 104   1.0000      -0.287881        -7.8336
 105   1.0000      -0.285037        -7.7563
 106   1.0000      -0.284280        -7.7357
 107   1.0000      -0.284019        -7.7286
 108   1.0000      -0.280326        -7.6281
 109   1.0000      -0.275843        -7.5061
 110   1.0000      -0.275419        -7.4945
 111   1.0000      -0.274879        -7.4798
 112   1.0000      -0.274170        -7.4606
 113   1.0000      -0.273982        -7.4554
 114   1.0000      -0.271854        -7.3975
 115   1.0000      -0.270061        -7.3487
 116   1.0000      -0.269550        -7.3348
 117   1.0000      -0.266904        -7.2628
 118   1.0000      -0.266080        -7.2404
 119   1.0000      -0.265147        -7.2150
 120   1.0000      -0.264379        -7.1941
 121   1.0000      -0.262660        -7.1473
 122   1.0000      -0.260853        -7.0982
 123   1.0000      -0.259754        -7.0683
 124   1.0000      -0.257737        -7.0134
 125   1.0000      -0.257548        -7.0082
 126   1.0000      -0.255790        -6.9604
 127   1.0000      -0.255363        -6.9488
 128   1.0000      -0.251807        -6.8520
 129   1.0000      -0.251588        -6.8460
 130   1.0000      -0.247951        -6.7471
 131   1.0000      -0.247145        -6.7251
 132   1.0000      -0.244899        -6.6641
 133   1.0000      -0.244154        -6.6438
 134   1.0000      -0.241216        -6.5638
 135   1.0000      -0.240511        -6.5446
 136   1.0000      -0.238558        -6.4915
 137   1.0000      -0.232576        -6.3287
 138   1.0000      -0.230575        -6.2743
 139   1.0000      -0.224873        -6.1191
 140   1.0000      -0.211930        -5.7669
 141   1.0000      -0.210869        -5.7380
 142   1.0000      -0.204881        -5.5751
 143   0.0000      -0.159025        -4.3273
 144   0.0000      -0.150280        -4.0893
 145   0.0000      -0.136767        -3.7216
 146   0.0000      -0.135722        -3.6932
 147   0.0000      -0.120470        -3.2782

MULLIKEN ATOMIC CHARGES AND SPIN POPULATIONS
--------------------------------------------
   0 Au:    0.440768    0.015831
   1 Au:   -0.115011   -0.032533
   2 Au:    0.370501    0.048538
   3 Au:   -0.103493   -0.012805
   4 Au:    0.389884   -0.008210
   5 Au:   -0.112981   -0.031734
   6 Au:    0.063021   -0.072558
   7 Au:    0.370951    0.047955
   8 Au:   -0.285923   -0.013323
   9 Au:    0.505017    0.035019
  10 Au:    0.107696    0.042725
  11 Au:   -0.313176   -0.014079
  12 Au:    0.500927    0.035325
  13 Au:    0.134719    0.042844
  14 Cr:   -1.952901    3.917006
Sum of atomic charges         :   -0.0000000

LOEWDIN ATOMIC CHARGES AND SPIN POPULATIONS
-------------------------------------------
   0 Au:    0.156422   -0.000347
   1 Au:   -0.006004    0.017083
   2 Au:    0.093390    0.029323
   3 Au:    0.013440    0.010850
   4 Au:    0.085806   -0.012978
   5 Au:   -0.005368    0.017385
   6 Au:    0.107894   -0.036125
   7 Au:    0.093231    0.028921
   8 Au:   -0.018467    0.018204
   9 Au:    0.144948    0.024599
  10 Au:   -0.010987    0.022767
  11 Au:   -0.021737    0.019116
  12 Au:    0.143906    0.024990
  13 Au:   -0.007546    0.023095
  14 Cr:   -0.768927    3.813116

  Mayer bond orders larger than 0.100000
B(  0-Au,  6-Au) :   0.3536 B(  0-Au,  8-Au) :   0.3122 B(  0-Au, 11-Au) :   0.3125
B(  0-Au, 14-Cr) :   0.4900 B(  1-Au,  2-Au) :   0.4945 B(  1-Au,  3-Au) :   0.2164
B(  1-Au,  8-Au) :   0.2490 B(  1-Au,  9-Au) :   0.3811 B(  1-Au, 10-Au) :   0.1983
B(  1-Au, 14-Cr) :   0.3567 B(  2-Au,  3-Au) :   0.1739 B(  2-Au,  4-Au) :   0.2581
B(  2-Au, 14-Cr) :   0.5350 B(  3-Au,  5-Au) :   0.2162 B(  3-Au,  7-Au) :   0.1769
B(  3-Au, 10-Au) :   0.2579 B(  3-Au, 13-Au) :   0.2525 B(  3-Au, 14-Cr) :   0.7284
B(  4-Au,  6-Au) :   0.3214 B(  4-Au,  7-Au) :   0.2585 B(  4-Au, 14-Cr) :   0.4100
B(  5-Au,  7-Au) :   0.4934 B(  5-Au, 11-Au) :   0.2481 B(  5-Au, 12-Au) :   0.3826
B(  5-Au, 13-Au) :   0.1967 B(  5-Au, 14-Cr) :   0.3549 B(  6-Au, 14-Cr) :   0.6570
B(  7-Au, 14-Cr) :   0.5322 B(  8-Au,  9-Au) :   0.4080 B(  8-Au, 10-Au) :   0.3022
B(  8-Au, 11-Au) :   0.3237 B(  8-Au, 14-Cr) :   0.3307 B(  9-Au, 10-Au) :   0.2708
B( 10-Au, 13-Au) :   0.5032 B( 10-Au, 14-Cr) :   0.1623 B( 11-Au, 12-Au) :   0.4087
B( 11-Au, 13-Au) :   0.3083 B( 11-Au, 14-Cr) :   0.3345 B( 12-Au, 13-Au) :   0.2671
B( 13-Au, 14-Cr) :   0.1565

FINAL SINGLE POINT ENERGY     -2945.834410050249

DIPOLE MOMENT
-------------
                                X             Y             Z
Electronic contribution:     -1.11353     -42.41959     -12.49702
Nuclear contribution   :      1.40664      42.41624      12.25690
                        -----------------------------------------
Total Dipole Moment    :      0.29311      -0.00334      -0.24012
                        -----------------------------------------
Magnitude (a.u.)       :      0.37892
Magnitude (Debye)      :      0.96315

Rotational constants in cm-1:     0.001018     0.000908     0.000738
Rotational constants in MHz :    30.524801    27.224677    22.131307

                             ****ORCA TERMINATED NORMALLY****
TOTAL RUN TIME: 0 days 6 hours 26 minutes 9 seconds 664 msec
