                         Program Version 5.0.3 -  RELEASE  -
|  1> %pal nprocs 1 end
|  2>
|  3> !PBE def2-TZVP OPT UNO
|  4> !VERYSLOWCONV
|  5>
|  6> *xyzfile 0 3 5.xyz
|  7>
|  8>                          ****END OF INPUT****
 Total Charge           Charge          ....    0
 Multiplicity           Mult            ....    3
 Number of Electrons    NEL             ....  292
FINAL SINGLE POINT ENERGY     -3165.058057757174
FINAL SINGLE POINT ENERGY     -3165.062350946257
FINAL SINGLE POINT ENERGY     -3165.063882859812
FINAL SINGLE POINT ENERGY     -3165.064115883741
FINAL SINGLE POINT ENERGY     -3165.064526479599
FINAL SINGLE POINT ENERGY     -3165.064589428140
FINAL SINGLE POINT ENERGY     -3165.064683335112
FINAL SINGLE POINT ENERGY     -3165.064769035065
FINAL SINGLE POINT ENERGY     -3165.064859946385
FINAL SINGLE POINT ENERGY     -3165.065004050127
FINAL SINGLE POINT ENERGY     -3165.065206686805
FINAL SINGLE POINT ENERGY     -3165.065356016356
FINAL SINGLE POINT ENERGY     -3165.065400680248
FINAL SINGLE POINT ENERGY     -3165.065424998513
FINAL SINGLE POINT ENERGY     -3165.065434708834
FINAL SINGLE POINT ENERGY     -3165.065440027433
                    ***********************HURRAY********************

CARTESIAN COORDINATES (ANGSTROEM)
---------------------------------
  Au     7.882320   10.619084    6.640926
  Au     9.861667    8.702974    7.113971
  Au     8.171476    9.552892    9.228592
  Au     8.506644    6.744903    9.481274
  Au     8.973009    6.031194    6.772807
  Au     8.480715    7.971828    4.795960
  Au     7.445212   10.379291    3.923804
  Au     4.578795    7.354028    7.333452
  Au     6.391993    6.194714    5.446528
  Au     5.673309    8.960066    5.382138
  Au     5.543308    9.948545    8.059297
  Au     6.615412    5.234976    8.082704
  Au     4.306681    5.771331    9.501042
  Au     6.006924    7.903649    9.941733
  Fe     7.233493    7.934372    7.360396

 Multiplicity           Mult            ....    3
 Number of Electrons    NEL             ....  292
 Basis Dimension        Dim             ....  605

ORBITAL ENERGIES
----------------
                 SPIN UP ORBITALS
  NO   OCC          E(Eh)            E(eV)
   0   1.0000    -254.746225     -6931.9972
   1   1.0000     -29.581177      -804.9448
   2   1.0000     -25.522725      -694.5087
   3   1.0000     -25.521011      -694.4620
   4   1.0000     -25.507320      -694.0895
   5   1.0000      -4.037804      -109.8742
   6   1.0000      -4.037647      -109.8700
   7   1.0000      -4.033847      -109.7665
   8   1.0000      -4.033821      -109.7658
   9   1.0000      -4.029724      -109.6544
  10   1.0000      -4.029704      -109.6538
  11   1.0000      -4.021765      -109.4378
  12   1.0000      -4.021649      -109.4346
  13   1.0000      -4.021633      -109.4342
  14   1.0000      -4.021465      -109.4296
  15   1.0000      -4.020301      -109.3980
  16   1.0000      -4.020237      -109.3962
  17   1.0000      -4.014845      -109.2495
  18   1.0000      -4.014683      -109.2451
  19   1.0000      -3.357978       -91.3752
  20   1.0000      -2.256989       -61.4158
  21   1.0000      -2.253295       -61.3153
  22   1.0000      -2.249525       -61.2127
  23   1.0000      -2.249104       -61.2012
  24   1.0000      -2.249053       -61.1998
  25   1.0000      -2.249044       -61.1996
  26   1.0000      -2.248150       -61.1753
  27   1.0000      -2.247303       -61.1522
  28   1.0000      -2.246717       -61.1363
  29   1.0000      -2.246643       -61.1343
  30   1.0000      -2.245963       -61.1157
  31   1.0000      -2.245846       -61.1126
  32   1.0000      -2.245119       -61.0928
  33   1.0000      -2.244942       -61.0880
  34   1.0000      -2.241964       -61.0070
  35   1.0000      -2.241801       -61.0025
  36   1.0000      -2.241316       -60.9893
  37   1.0000      -2.241111       -60.9837
  38   1.0000      -2.237676       -60.8903
  39   1.0000      -2.237442       -60.8839
  40   1.0000      -2.237319       -60.8806
  41   1.0000      -2.237032       -60.8727
  42   1.0000      -2.235611       -60.8341
  43   1.0000      -2.235525       -60.8317
  44   1.0000      -2.234537       -60.8049
  45   1.0000      -2.234436       -60.8021
  46   1.0000      -2.233813       -60.7851
  47   1.0000      -2.233610       -60.7796
  48   1.0000      -2.232980       -60.7625
  49   1.0000      -2.232870       -60.7595
  50   1.0000      -2.232615       -60.7526
  51   1.0000      -2.232467       -60.7485
  52   1.0000      -2.231501       -60.7222
  53   1.0000      -2.231368       -60.7186
  54   1.0000      -2.230609       -60.6980
  55   1.0000      -2.230464       -60.6940
  56   1.0000      -2.230201       -60.6869
  57   1.0000      -2.230042       -60.6825
  58   1.0000      -2.225785       -60.5667
  59   1.0000      -2.225669       -60.5635
  60   1.0000      -2.225574       -60.5609
  61   1.0000      -2.225547       -60.5602
  62   1.0000      -2.183221       -59.4085
  63   1.0000      -2.180303       -59.3291
  64   1.0000      -2.152546       -58.5737
  65   1.0000      -0.439668       -11.9640
  66   1.0000      -0.393171       -10.6987
  67   1.0000      -0.386154       -10.5078
  68   1.0000      -0.384659       -10.4671
  69   1.0000      -0.376444       -10.2435
  70   1.0000      -0.375502       -10.2179
  71   1.0000      -0.374742       -10.1972
  72   1.0000      -0.371983       -10.1222
  73   1.0000      -0.367926       -10.0118
  74   1.0000      -0.358728        -9.7615
  75   1.0000      -0.352076        -9.5805
  76   1.0000      -0.351926        -9.5764
  77   1.0000      -0.351550        -9.5662
  78   1.0000      -0.349680        -9.5153
  79   1.0000      -0.347591        -9.4584
  80   1.0000      -0.346773        -9.4362
  81   1.0000      -0.343888        -9.3577
  82   1.0000      -0.341018        -9.2796
  83   1.0000      -0.338837        -9.2202
  84   1.0000      -0.336926        -9.1682
  85   1.0000      -0.335330        -9.1248
  86   1.0000      -0.332672        -9.0525
  87   1.0000      -0.332229        -9.0404
  88   1.0000      -0.329385        -8.9630
  89   1.0000      -0.326594        -8.8871
  90   1.0000      -0.322605        -8.7785
  91   1.0000      -0.321579        -8.7506
  92   1.0000      -0.319709        -8.6997
  93   1.0000      -0.319006        -8.6806
  94   1.0000      -0.317008        -8.6262
  95   1.0000      -0.313646        -8.5347
  96   1.0000      -0.309261        -8.4154
  97   1.0000      -0.307643        -8.3714
  98   1.0000      -0.303763        -8.2658
  99   1.0000      -0.303447        -8.2572
 100   1.0000      -0.300066        -8.1652
 101   1.0000      -0.295978        -8.0540
 102   1.0000      -0.295772        -8.0484
 103   1.0000      -0.289467        -7.8768
 104   1.0000      -0.287471        -7.8225
 105   1.0000      -0.285442        -7.7673
 106   1.0000      -0.279702        -7.6111
 107   1.0000      -0.279588        -7.6080
 108   1.0000      -0.275586        -7.4991
 109   1.0000      -0.275320        -7.4918
 110   1.0000      -0.274577        -7.4716
 111   1.0000      -0.273339        -7.4379
 112   1.0000      -0.272990        -7.4284
 113   1.0000      -0.271478        -7.3873
 114   1.0000      -0.270934        -7.3725
 115   1.0000      -0.269505        -7.3336
 116   1.0000      -0.267118        -7.2687
 117   1.0000      -0.266704        -7.2574
 118   1.0000      -0.266250        -7.2450
 119   1.0000      -0.266087        -7.2406
 120   1.0000      -0.262273        -7.1368
 121   1.0000      -0.259989        -7.0747
 122   1.0000      -0.259885        -7.0718
 123   1.0000      -0.257775        -7.0144
 124   1.0000      -0.257632        -7.0105
 125   1.0000      -0.257286        -7.0011
 126   1.0000      -0.256187        -6.9712
 127   1.0000      -0.256094        -6.9687
 128   1.0000      -0.255387        -6.9494
 129   1.0000      -0.252771        -6.8783
 130   1.0000      -0.251809        -6.8521
 131   1.0000      -0.249842        -6.7985
 132   1.0000      -0.248928        -6.7737
 133   1.0000      -0.248053        -6.7499
 134   1.0000      -0.246173        -6.6987
 135   1.0000      -0.246141        -6.6978
 136   1.0000      -0.244640        -6.6570
 137   1.0000      -0.242437        -6.5971
 138   1.0000      -0.242204        -6.5907
 139   1.0000      -0.241748        -6.5783
 140   1.0000      -0.235090        -6.3971
 141   1.0000      -0.233474        -6.3532
 142   1.0000      -0.233200        -6.3457
 143   1.0000      -0.232944        -6.3387
 144   1.0000      -0.212962        -5.7950
 145   1.0000      -0.202649        -5.5144
 146   1.0000      -0.189794        -5.1645
 147   0.0000      -0.182895        -4.9768
 148   0.0000      -0.180863        -4.9215
 149   0.0000      -0.140083        -3.8119
 150   0.0000      -0.138883        -3.7792
 151   0.0000      -0.120614        -3.2821

                 SPIN DOWN ORBITALS
  NO   OCC          E(Eh)            E(eV)
   0   1.0000    -254.745597     -6931.9801
   1   1.0000     -29.526403      -803.4543
   2   1.0000     -25.479813      -693.3410
   3   1.0000     -25.478472      -693.3045
   4   1.0000     -25.468713      -693.0389
   5   1.0000      -4.037637      -109.8697
   6   1.0000      -4.037478      -109.8654
   7   1.0000      -4.033841      -109.7664
   8   1.0000      -4.033815      -109.7657
   9   1.0000      -4.029947      -109.6604
  10   1.0000      -4.029925      -109.6598
  11   1.0000      -4.022407      -109.4553
  12   1.0000      -4.022294      -109.4522
  13   1.0000      -4.022277      -109.4517
  14   1.0000      -4.022116      -109.4473
  15   1.0000      -4.020462      -109.4023
  16   1.0000      -4.020386      -109.4003
  17   1.0000      -4.015224      -109.2598
  18   1.0000      -4.015049      -109.2550
  19   1.0000      -3.233878       -87.9983
  20   1.0000      -2.256846       -61.4119
  21   1.0000      -2.253127       -61.3107
  22   1.0000      -2.248723       -61.1909
  23   1.0000      -2.248687       -61.1899
  24   1.0000      -2.248644       -61.1887
  25   1.0000      -2.248454       -61.1835
  26   1.0000      -2.248243       -61.1778
  27   1.0000      -2.247641       -61.1614
  28   1.0000      -2.246795       -61.1384
  29   1.0000      -2.246715       -61.1362
  30   1.0000      -2.245988       -61.1164
  31   1.0000      -2.245948       -61.1154
  32   1.0000      -2.245213       -61.0954
  33   1.0000      -2.245000       -61.0896
  34   1.0000      -2.242204       -61.0135
  35   1.0000      -2.242049       -61.0093
  36   1.0000      -2.241809       -61.0027
  37   1.0000      -2.241612       -60.9974
  38   1.0000      -2.238631       -60.9162
  39   1.0000      -2.238428       -60.9107
  40   1.0000      -2.238272       -60.9065
  41   1.0000      -2.238021       -60.8996
  42   1.0000      -2.235718       -60.8370
  43   1.0000      -2.235587       -60.8334
  44   1.0000      -2.235175       -60.8222
  45   1.0000      -2.235030       -60.8183
  46   1.0000      -2.234314       -60.7988
  47   1.0000      -2.234141       -60.7941
  48   1.0000      -2.233408       -60.7741
  49   1.0000      -2.233305       -60.7713
  50   1.0000      -2.232851       -60.7590
  51   1.0000      -2.232701       -60.7549
  52   1.0000      -2.231780       -60.7298
  53   1.0000      -2.231645       -60.7261
  54   1.0000      -2.231122       -60.7119
  55   1.0000      -2.230965       -60.7077
  56   1.0000      -2.230584       -60.6973
  57   1.0000      -2.230419       -60.6928
  58   1.0000      -2.226229       -60.5788
  59   1.0000      -2.226116       -60.5757
  60   1.0000      -2.225989       -60.5722
  61   1.0000      -2.225742       -60.5655
  62   1.0000      -2.057406       -55.9849
  63   1.0000      -2.055834       -55.9421
  64   1.0000      -2.038343       -55.4661
  65   1.0000      -0.436444       -11.8762
  66   1.0000      -0.392473       -10.6797
  67   1.0000      -0.386718       -10.5231
  68   1.0000      -0.384959       -10.4753
  69   1.0000      -0.375215       -10.2101
  70   1.0000      -0.368886       -10.0379
  71   1.0000      -0.368618       -10.0306
  72   1.0000      -0.367440        -9.9986
  73   1.0000      -0.361917        -9.8483
  74   1.0000      -0.357393        -9.7251
  75   1.0000      -0.351857        -9.5745
  76   1.0000      -0.351725        -9.5709
  77   1.0000      -0.351433        -9.5630
  78   1.0000      -0.350007        -9.5242
  79   1.0000      -0.349343        -9.5061
  80   1.0000      -0.347789        -9.4638
  81   1.0000      -0.344574        -9.3763
  82   1.0000      -0.341278        -9.2866
  83   1.0000      -0.337868        -9.1939
  84   1.0000      -0.336429        -9.1547
  85   1.0000      -0.335934        -9.1412
  86   1.0000      -0.332679        -9.0527
  87   1.0000      -0.332505        -9.0479
  88   1.0000      -0.331015        -9.0074
  89   1.0000      -0.326452        -8.8832
  90   1.0000      -0.323177        -8.7941
  91   1.0000      -0.320918        -8.7326
  92   1.0000      -0.320380        -8.7180
  93   1.0000      -0.318514        -8.6672
  94   1.0000      -0.318193        -8.6585
  95   1.0000      -0.314481        -8.5575
  96   1.0000      -0.309050        -8.4097
  97   1.0000      -0.302859        -8.2412
  98   1.0000      -0.301349        -8.2001
  99   1.0000      -0.297990        -8.1087
 100   1.0000      -0.297377        -8.0920
 101   1.0000      -0.294157        -8.0044
 102   1.0000      -0.292788        -7.9672
 103   1.0000      -0.287819        -7.8319
 104   1.0000      -0.285449        -7.7675
 105   1.0000      -0.282160        -7.6780
 106   1.0000      -0.278595        -7.5810
 107   1.0000      -0.276063        -7.5120
 108   1.0000      -0.275840        -7.5060
 109   1.0000      -0.275530        -7.4976
 110   1.0000      -0.273780        -7.4499
 111   1.0000      -0.273174        -7.4334
 112   1.0000      -0.272493        -7.4149
 113   1.0000      -0.271475        -7.3872
 114   1.0000      -0.270684        -7.3657
 115   1.0000      -0.268624        -7.3096
 116   1.0000      -0.267548        -7.2804
 117   1.0000      -0.267156        -7.2697
 118   1.0000      -0.266594        -7.2544
 119   1.0000      -0.265920        -7.2360
 120   1.0000      -0.262438        -7.1413
 121   1.0000      -0.260489        -7.0883
 122   1.0000      -0.259766        -7.0686
 123   1.0000      -0.259221        -7.0538
 124   1.0000      -0.259180        -7.0527
 125   1.0000      -0.258176        -7.0253
 126   1.0000      -0.256909        -6.9909
 127   1.0000      -0.256645        -6.9837
 128   1.0000      -0.253333        -6.8935
 129   1.0000      -0.253101        -6.8872
 130   1.0000      -0.251060        -6.8317
 131   1.0000      -0.249993        -6.8027
 132   1.0000      -0.248343        -6.7578
 133   1.0000      -0.246743        -6.7142
 134   1.0000      -0.244278        -6.6471
 135   1.0000      -0.244256        -6.6465
 136   1.0000      -0.236794        -6.4435
 137   1.0000      -0.235381        -6.4050
 138   1.0000      -0.234935        -6.3929
 139   1.0000      -0.227056        -6.1785
 140   1.0000      -0.211013        -5.7419
 141   1.0000      -0.201357        -5.4792
 142   1.0000      -0.200866        -5.4659
 143   1.0000      -0.200026        -5.4430
 144   1.0000      -0.169307        -4.6071
 145   0.0000      -0.154735        -4.2105
 146   0.0000      -0.153477        -4.1763
 147   0.0000      -0.150402        -4.0927
 148   0.0000      -0.138272        -3.7626
 149   0.0000      -0.137452        -3.7402

MULLIKEN ATOMIC CHARGES AND SPIN POPULATIONS
--------------------------------------------
   0 Au:    0.001566    0.017565
   1 Au:    0.269013   -0.069073
   2 Au:    0.395847   -0.120382
   3 Au:    0.269699   -0.068951
   4 Au:    0.395735   -0.120279
   5 Au:    0.002807    0.014887
   6 Au:    0.414474   -0.020994
   7 Au:    0.050197   -0.045070
   8 Au:    0.335263   -0.169980
   9 Au:    0.052884   -0.047911
  10 Au:    0.334479   -0.169698
  11 Au:    0.000817    0.017028
  12 Au:    0.413401   -0.019326
  13 Au:    0.002918    0.014607
  14 Fe:   -2.939100    2.787577
Sum of atomic charges         :   -0.0000000

LOEWDIN ATOMIC CHARGES AND SPIN POPULATIONS
-------------------------------------------
   0 Au:   -0.024557   -0.038351
   1 Au:    0.090377   -0.073954
   2 Au:    0.091729   -0.096891
   3 Au:    0.089973   -0.073466
   4 Au:    0.091621   -0.096853
   5 Au:   -0.024009   -0.039688
   6 Au:    0.106584   -0.014191
   7 Au:    0.011490   -0.063194
   8 Au:    0.119447   -0.120702
   9 Au:    0.011809   -0.064796
  10 Au:    0.119292   -0.120566
  11 Au:   -0.024329   -0.038947
  12 Au:    0.105657   -0.012647
  13 Au:   -0.023774   -0.039968
  14 Fe:   -0.741311    2.894214

  Mayer bond orders larger than 0.100000
B(  0-Au,  1-Au) :   0.2195 B(  0-Au,  2-Au) :   0.2298 B(  0-Au,  5-Au) :   0.1284
B(  0-Au,  6-Au) :   0.3024 B(  0-Au,  9-Au) :   0.1925 B(  0-Au, 10-Au) :   0.1827
B(  0-Au, 14-Fe) :   0.3943 B(  1-Au,  2-Au) :   0.1778 B(  1-Au,  4-Au) :   0.1786
B(  1-Au,  5-Au) :   0.2203 B(  1-Au, 14-Fe) :   0.5070 B(  2-Au,  3-Au) :   0.1779
B(  2-Au, 10-Au) :   0.1178 B(  2-Au, 13-Au) :   0.2287 B(  2-Au, 14-Fe) :   0.4674
B(  3-Au,  4-Au) :   0.1774 B(  3-Au, 11-Au) :   0.2183 B(  3-Au, 13-Au) :   0.2199
B(  3-Au, 14-Fe) :   0.5084 B(  4-Au,  5-Au) :   0.2295 B(  4-Au,  8-Au) :   0.1167
B(  4-Au, 11-Au) :   0.2299 B(  4-Au, 14-Fe) :   0.4673 B(  5-Au,  6-Au) :   0.3030
B(  5-Au,  8-Au) :   0.1806 B(  5-Au,  9-Au) :   0.1930 B(  5-Au, 14-Fe) :   0.3955
B(  6-Au,  9-Au) :   0.4320 B(  7-Au,  8-Au) :   0.1388 B(  7-Au,  9-Au) :   0.3753
B(  7-Au, 10-Au) :   0.1405 B(  7-Au, 11-Au) :   0.1927 B(  7-Au, 12-Au) :   0.4346
B(  7-Au, 13-Au) :   0.1940 B(  7-Au, 14-Fe) :   0.4278 B(  8-Au,  9-Au) :   0.1412
B(  8-Au, 11-Au) :   0.1844 B(  8-Au, 14-Fe) :   0.5427 B(  9-Au, 10-Au) :   0.1407
B(  9-Au, 14-Fe) :   0.4268 B( 10-Au, 13-Au) :   0.1825 B( 10-Au, 14-Fe) :   0.5424
B( 11-Au, 12-Au) :   0.3019 B( 11-Au, 13-Au) :   0.1284 B( 11-Au, 14-Fe) :   0.3925
B( 12-Au, 13-Au) :   0.3019 B( 13-Au, 14-Fe) :   0.3937

FINAL SINGLE POINT ENERGY     -3165.065441756908

DIPOLE MOMENT
-------------
                                X             Y             Z
Electronic contribution:     -7.80294       0.79742      -3.69939
Nuclear contribution   :      7.72149      -0.78612       3.65787
                        -----------------------------------------
Total Dipole Moment    :     -0.08145       0.01130      -0.04152
                        -----------------------------------------
Magnitude (a.u.)       :      0.09212
Magnitude (Debye)      :      0.23414

Rotational constants in cm-1:     0.001338     0.000915     0.000900
Rotational constants in MHz :    40.114543    27.436292    26.994491

                             ****ORCA TERMINATED NORMALLY****
TOTAL RUN TIME: 0 days 8 hours 53 minutes 51 seconds 711 msec
