                         Program Version 5.0.3 -  RELEASE  -
|  1> %pal nprocs 1 end
|  2>
|  3> !PBE def2-TZVP OPT UNO
|  4> !SLOWCONV KDIIS
|  5>
|  6> %geom maxiter 300 end
|  7>
|  8> *xyzfile 0 5 7.xyz                           ****END OF INPUT****
 Total Charge           Charge          ....    0
 Multiplicity           Mult            ....    5
 Number of Electrons    NEL             ....  252
FINAL SINGLE POINT ENERGY     -2674.137983094464
FINAL SINGLE POINT ENERGY     -2674.140231514610
FINAL SINGLE POINT ENERGY     -2674.141776847610
FINAL SINGLE POINT ENERGY     -2674.142919241574
FINAL SINGLE POINT ENERGY     -2674.143836243531
FINAL SINGLE POINT ENERGY     -2674.144498828306
FINAL SINGLE POINT ENERGY     -2674.144750083084
FINAL SINGLE POINT ENERGY     -2674.145027527406
FINAL SINGLE POINT ENERGY     -2674.145176406397
FINAL SINGLE POINT ENERGY     -2674.145237313097
FINAL SINGLE POINT ENERGY     -2674.145999921622
FINAL SINGLE POINT ENERGY     -2674.146005817057
FINAL SINGLE POINT ENERGY     -2674.146009791890
FINAL SINGLE POINT ENERGY     -2674.146013242520
FINAL SINGLE POINT ENERGY     -2674.146017657303
FINAL SINGLE POINT ENERGY     -2674.146024010427
FINAL SINGLE POINT ENERGY     -2674.146031511222
FINAL SINGLE POINT ENERGY     -2674.146036984678
FINAL SINGLE POINT ENERGY     -2674.146039089233
                    ***********************HURRAY********************

CARTESIAN COORDINATES (ANGSTROEM)
---------------------------------
  Au     7.954869    8.933313   10.802903
  Au     9.548569    6.908858    9.560746
  Au     6.799053   11.211120    6.715001
  Au     8.781465   10.528479    8.657953
  Au     6.870052    6.397393   10.036346
  Au     5.950448    9.991148    9.161575
  Au     5.392492    8.811109    6.708986
  Au     6.024995    6.133859    7.485314
  Au     8.874258    9.466716    6.090414
  Au     6.645180    9.768005    4.327399
  Au     9.525045    6.792965    6.862911
  Au     7.281990    7.234965    5.218692
  Cr     7.626051    8.156590    8.128798

 Multiplicity           Mult            ....    5
 Number of Electrons    NEL             ....  252
 Basis Dimension        Dim             ....  525

ORBITAL ENERGIES
----------------
                 SPIN UP ORBITALS
  NO   OCC          E(Eh)            E(eV)
   0   1.0000    -214.490687     -5836.5883
   1   1.0000     -24.292440      -661.0309
   2   1.0000     -20.658939      -562.1583
   3   1.0000     -20.655186      -562.0562
   4   1.0000     -20.652761      -561.9902
   5   1.0000      -4.032725      -109.7360
   6   1.0000      -4.032701      -109.7354
   7   1.0000      -4.026603      -109.5694
   8   1.0000      -4.026524      -109.5673
   9   1.0000      -4.025125      -109.5292
  10   1.0000      -4.023864      -109.4949
  11   1.0000      -4.023840      -109.4943
  12   1.0000      -4.019606      -109.3790
  13   1.0000      -4.018464      -109.3480
  14   1.0000      -4.017729      -109.3280
  15   1.0000      -4.017569      -109.3236
  16   1.0000      -4.012358      -109.1818
  17   1.0000      -2.796897       -76.1074
  18   1.0000      -2.248288       -61.1790
  19   1.0000      -2.248247       -61.1779
  20   1.0000      -2.246617       -61.1336
  21   1.0000      -2.246602       -61.1332
  22   1.0000      -2.243693       -61.0540
  23   1.0000      -2.243395       -61.0459
  24   1.0000      -2.242917       -61.0329
  25   1.0000      -2.242166       -61.0124
  26   1.0000      -2.240763       -60.9743
  27   1.0000      -2.240485       -60.9667
  28   1.0000      -2.240014       -60.9539
  29   1.0000      -2.239802       -60.9481
  30   1.0000      -2.239448       -60.9385
  31   1.0000      -2.239194       -60.9316
  32   1.0000      -2.237581       -60.8877
  33   1.0000      -2.237139       -60.8757
  34   1.0000      -2.237122       -60.8752
  35   1.0000      -2.236173       -60.8494
  36   1.0000      -2.235727       -60.8372
  37   1.0000      -2.235280       -60.8251
  38   1.0000      -2.234295       -60.7982
  39   1.0000      -2.233003       -60.7631
  40   1.0000      -2.232169       -60.7404
  41   1.0000      -2.232018       -60.7363
  42   1.0000      -2.231868       -60.7322
  43   1.0000      -2.231741       -60.7288
  44   1.0000      -2.231640       -60.7260
  45   1.0000      -2.231052       -60.7100
  46   1.0000      -2.230874       -60.7052
  47   1.0000      -2.230157       -60.6857
  48   1.0000      -2.229617       -60.6710
  49   1.0000      -2.226627       -60.5896
  50   1.0000      -2.226536       -60.5871
  51   1.0000      -2.225622       -60.5622
  52   1.0000      -2.224682       -60.5367
  53   1.0000      -2.224365       -60.5281
  54   1.0000      -1.790856       -48.7317
  55   1.0000      -1.785845       -48.5953
  56   1.0000      -1.783161       -48.5223
  57   1.0000      -0.418097       -11.3770
  58   1.0000      -0.379693       -10.3320
  59   1.0000      -0.375391       -10.2149
  60   1.0000      -0.365360        -9.9420
  61   1.0000      -0.361234        -9.8297
  62   1.0000      -0.360595        -9.8123
  63   1.0000      -0.355115        -9.6632
  64   1.0000      -0.355033        -9.6609
  65   1.0000      -0.352013        -9.5788
  66   1.0000      -0.350303        -9.5322
  67   1.0000      -0.344371        -9.3708
  68   1.0000      -0.343603        -9.3499
  69   1.0000      -0.342500        -9.3199
  70   1.0000      -0.339693        -9.2435
  71   1.0000      -0.338212        -9.2032
  72   1.0000      -0.337658        -9.1881
  73   1.0000      -0.332748        -9.0545
  74   1.0000      -0.331070        -9.0089
  75   1.0000      -0.330981        -9.0064
  76   1.0000      -0.328247        -8.9320
  77   1.0000      -0.327102        -8.9009
  78   1.0000      -0.322119        -8.7653
  79   1.0000      -0.316875        -8.6226
  80   1.0000      -0.314891        -8.5686
  81   1.0000      -0.310591        -8.4516
  82   1.0000      -0.307590        -8.3699
  83   1.0000      -0.304572        -8.2878
  84   1.0000      -0.303038        -8.2461
  85   1.0000      -0.302206        -8.2235
  86   1.0000      -0.299087        -8.1386
  87   1.0000      -0.298898        -8.1334
  88   1.0000      -0.295222        -8.0334
  89   1.0000      -0.293285        -7.9807
  90   1.0000      -0.287195        -7.8150
  91   1.0000      -0.286139        -7.7862
  92   1.0000      -0.282663        -7.6917
  93   1.0000      -0.278209        -7.5704
  94   1.0000      -0.277064        -7.5393
  95   1.0000      -0.276886        -7.5344
  96   1.0000      -0.274419        -7.4673
  97   1.0000      -0.274400        -7.4668
  98   1.0000      -0.272410        -7.4127
  99   1.0000      -0.268714        -7.3121
 100   1.0000      -0.268096        -7.2953
 101   1.0000      -0.266079        -7.2404
 102   1.0000      -0.265422        -7.2225
 103   1.0000      -0.264138        -7.1876
 104   1.0000      -0.262225        -7.1355
 105   1.0000      -0.259381        -7.0581
 106   1.0000      -0.257991        -7.0203
 107   1.0000      -0.257708        -7.0126
 108   1.0000      -0.255903        -6.9635
 109   1.0000      -0.255337        -6.9481
 110   1.0000      -0.253625        -6.9015
 111   1.0000      -0.249924        -6.8008
 112   1.0000      -0.249281        -6.7833
 113   1.0000      -0.248202        -6.7539
 114   1.0000      -0.247034        -6.7221
 115   1.0000      -0.246370        -6.7041
 116   1.0000      -0.241651        -6.5756
 117   1.0000      -0.240184        -6.5357
 118   1.0000      -0.239502        -6.5172
 119   1.0000      -0.237433        -6.4609
 120   1.0000      -0.230651        -6.2763
 121   1.0000      -0.220176        -5.9913
 122   1.0000      -0.214382        -5.8336
 123   1.0000      -0.212817        -5.7910
 124   1.0000      -0.211822        -5.7640
 125   1.0000      -0.204188        -5.5562
 126   1.0000      -0.188210        -5.1215
 127   1.0000      -0.182539        -4.9671
 128   0.0000      -0.166115        -4.5202
 129   0.0000      -0.161152        -4.3852
 130   0.0000      -0.150577        -4.0974
 131   0.0000      -0.130344        -3.5468
 132   0.0000      -0.117323        -3.1925

                 SPIN DOWN ORBITALS
  NO   OCC          E(Eh)            E(eV)
   0   1.0000    -214.490251     -5836.5765
   1   1.0000     -24.245785      -659.7614
   2   1.0000     -20.625451      -561.2471
   3   1.0000     -20.619862      -561.0950
   4   1.0000     -20.614620      -560.9523
   5   1.0000      -4.031600      -109.7054
   6   1.0000      -4.031576      -109.7048
   7   1.0000      -4.025766      -109.5467
   8   1.0000      -4.025688      -109.5445
   9   1.0000      -4.024167      -109.5032
  10   1.0000      -4.022823      -109.4666
  11   1.0000      -4.022801      -109.4660
  12   1.0000      -4.019369      -109.3726
  13   1.0000      -4.017199      -109.3135
  14   1.0000      -4.016601      -109.2973
  15   1.0000      -4.016442      -109.2929
  16   1.0000      -4.011897      -109.1693
  17   1.0000      -2.670994       -72.6814
  18   1.0000      -2.246697       -61.1357
  19   1.0000      -2.246648       -61.1344
  20   1.0000      -2.245748       -61.1099
  21   1.0000      -2.245734       -61.1095
  22   1.0000      -2.242562       -61.0232
  23   1.0000      -2.242253       -61.0148
  24   1.0000      -2.241754       -61.0012
  25   1.0000      -2.241015       -60.9811
  26   1.0000      -2.239387       -60.9368
  27   1.0000      -2.239367       -60.9363
  28   1.0000      -2.239003       -60.9264
  29   1.0000      -2.238748       -60.9194
  30   1.0000      -2.238701       -60.9182
  31   1.0000      -2.238363       -60.9090
  32   1.0000      -2.236708       -60.8639
  33   1.0000      -2.236225       -60.8508
  34   1.0000      -2.236216       -60.8505
  35   1.0000      -2.235019       -60.8180
  36   1.0000      -2.234832       -60.8129
  37   1.0000      -2.233741       -60.7832
  38   1.0000      -2.233682       -60.7816
  39   1.0000      -2.231923       -60.7337
  40   1.0000      -2.231399       -60.7194
  41   1.0000      -2.230991       -60.7084
  42   1.0000      -2.230926       -60.7066
  43   1.0000      -2.230726       -60.7011
  44   1.0000      -2.230700       -60.7004
  45   1.0000      -2.230494       -60.6948
  46   1.0000      -2.229989       -60.6811
  47   1.0000      -2.229058       -60.6558
  48   1.0000      -2.228206       -60.6326
  49   1.0000      -2.225790       -60.5668
  50   1.0000      -2.225412       -60.5565
  51   1.0000      -2.224367       -60.5281
  52   1.0000      -2.224155       -60.5223
  53   1.0000      -2.224144       -60.5220
  54   1.0000      -1.673889       -45.5488
  55   1.0000      -1.662846       -45.2483
  56   1.0000      -1.650926       -44.9240
  57   1.0000      -0.410924       -11.1818
  58   1.0000      -0.376013       -10.2318
  59   1.0000      -0.371529       -10.1098
  60   1.0000      -0.363291        -9.8856
  61   1.0000      -0.358399        -9.7525
  62   1.0000      -0.355368        -9.6701
  63   1.0000      -0.352644        -9.5959
  64   1.0000      -0.352368        -9.5884
  65   1.0000      -0.350012        -9.5243
  66   1.0000      -0.345872        -9.4117
  67   1.0000      -0.341724        -9.2988
  68   1.0000      -0.340645        -9.2694
  69   1.0000      -0.339932        -9.2500
  70   1.0000      -0.338449        -9.2097
  71   1.0000      -0.336498        -9.1566
  72   1.0000      -0.332837        -9.0569
  73   1.0000      -0.330615        -8.9965
  74   1.0000      -0.329234        -8.9589
  75   1.0000      -0.328461        -8.9379
  76   1.0000      -0.324759        -8.8371
  77   1.0000      -0.322256        -8.7690
  78   1.0000      -0.320338        -8.7168
  79   1.0000      -0.315993        -8.5986
  80   1.0000      -0.313043        -8.5183
  81   1.0000      -0.309390        -8.4189
  82   1.0000      -0.305565        -8.3149
  83   1.0000      -0.303006        -8.2452
  84   1.0000      -0.300781        -8.1847
  85   1.0000      -0.300528        -8.1778
  86   1.0000      -0.295983        -8.0541
  87   1.0000      -0.295896        -8.0517
  88   1.0000      -0.291954        -7.9445
  89   1.0000      -0.290600        -7.9076
  90   1.0000      -0.285577        -7.7710
  91   1.0000      -0.284346        -7.7375
  92   1.0000      -0.281876        -7.6702
  93   1.0000      -0.276857        -7.5337
  94   1.0000      -0.276238        -7.5168
  95   1.0000      -0.274748        -7.4763
  96   1.0000      -0.273515        -7.4427
  97   1.0000      -0.273479        -7.4417
  98   1.0000      -0.271430        -7.3860
  99   1.0000      -0.267482        -7.2786
 100   1.0000      -0.267310        -7.2739
 101   1.0000      -0.265323        -7.2198
 102   1.0000      -0.263824        -7.1790
 103   1.0000      -0.263162        -7.1610
 104   1.0000      -0.261559        -7.1174
 105   1.0000      -0.258157        -7.0248
 106   1.0000      -0.257101        -6.9961
 107   1.0000      -0.256805        -6.9880
 108   1.0000      -0.254979        -6.9383
 109   1.0000      -0.254224        -6.9178
 110   1.0000      -0.252142        -6.8611
 111   1.0000      -0.249056        -6.7772
 112   1.0000      -0.247580        -6.7370
 113   1.0000      -0.246815        -6.7162
 114   1.0000      -0.245847        -6.6898
 115   1.0000      -0.245289        -6.6747
 116   1.0000      -0.240415        -6.5420
 117   1.0000      -0.238577        -6.4920
 118   1.0000      -0.238424        -6.4878
 119   1.0000      -0.236308        -6.4303
 120   1.0000      -0.228986        -6.2310
 121   1.0000      -0.211858        -5.7649
 122   1.0000      -0.200750        -5.4627
 123   1.0000      -0.200289        -5.4501
 124   0.0000      -0.179763        -4.8916
 125   0.0000      -0.158436        -4.3113
 126   0.0000      -0.136579        -3.7165
 127   0.0000      -0.119613        -3.2548
 128   0.0000      -0.115554        -3.1444

MULLIKEN ATOMIC CHARGES AND SPIN POPULATIONS
--------------------------------------------
   0 Au:    0.400245    0.093216
   1 Au:    0.346326    0.062408
   2 Au:    0.228262    0.068964
   3 Au:    0.390092    0.013385
   4 Au:    0.346026    0.062634
   5 Au:    0.391073    0.013430
   6 Au:    0.323728    0.008133
   7 Au:    0.292705    0.002081
   8 Au:    0.323829    0.008456
   9 Au:    0.116308    0.121932
  10 Au:    0.293425    0.002119
  11 Au:    0.366824    0.078224
  12 Cr:   -3.818844    3.465019
Sum of atomic charges         :   -0.0000000

LOEWDIN ATOMIC CHARGES AND SPIN POPULATIONS
-------------------------------------------
   0 Au:    0.086656    0.080377
   1 Au:    0.118530    0.043312
   2 Au:    0.036353    0.031166
   3 Au:    0.139650    0.023849
   4 Au:    0.118623    0.043454
   5 Au:    0.139985    0.023737
   6 Au:    0.057297    0.036479
   7 Au:    0.158288    0.018777
   8 Au:    0.057843    0.036589
   9 Au:    0.069712    0.088322
  10 Au:    0.158363    0.018716
  11 Au:    0.046217    0.066640
  12 Cr:   -1.187516    3.488582

  Mayer bond orders larger than 0.100000
B(  0-Au,  1-Au) :   0.1866 B(  0-Au,  3-Au) :   0.2427 B(  0-Au,  4-Au) :   0.1857
B(  0-Au,  5-Au) :   0.2422 B(  0-Au, 12-Cr) :   0.5536 B(  1-Au,  4-Au) :   0.2878
B(  1-Au, 10-Au) :   0.3467 B(  1-Au, 12-Cr) :   0.5440 B(  2-Au,  3-Au) :   0.2019
B(  2-Au,  5-Au) :   0.2007 B(  2-Au,  6-Au) :   0.2120 B(  2-Au,  8-Au) :   0.2116
B(  2-Au,  9-Au) :   0.2799 B(  2-Au, 12-Cr) :   0.4617 B(  3-Au,  5-Au) :   0.1489
B(  3-Au,  8-Au) :   0.2687 B(  3-Au, 12-Cr) :   0.6780 B(  4-Au,  7-Au) :   0.3471
B(  4-Au, 12-Cr) :   0.5446 B(  5-Au,  6-Au) :   0.2703 B(  5-Au, 12-Cr) :   0.6793
B(  6-Au,  7-Au) :   0.2483 B(  6-Au,  9-Au) :   0.2334 B(  6-Au, 11-Au) :   0.1421
B(  6-Au, 12-Cr) :   0.4950 B(  7-Au, 11-Au) :   0.1933 B(  7-Au, 12-Cr) :   0.6665
B(  8-Au,  9-Au) :   0.2319 B(  8-Au, 10-Au) :   0.2499 B(  8-Au, 11-Au) :   0.1426
B(  8-Au, 12-Cr) :   0.4956 B(  9-Au, 11-Au) :   0.3083 B(  9-Au, 12-Cr) :   0.4344
B( 10-Au, 11-Au) :   0.1929 B( 10-Au, 12-Cr) :   0.6670 B( 11-Au, 12-Cr) :   0.5241

FINAL SINGLE POINT ENERGY     -2674.146039571740

DIPOLE MOMENT
-------------
                                X             Y             Z
Electronic contribution:     -5.44144      12.54881     -17.27862
Nuclear contribution   :      5.45310     -12.57490      17.30927
                        -----------------------------------------
Total Dipole Moment    :      0.01166      -0.02609       0.03065
                        -----------------------------------------
Magnitude (a.u.)       :      0.04191
Magnitude (Debye)      :      0.10652

Rotational constants in cm-1:     0.001646     0.001225     0.001075
Rotational constants in MHz :    49.331643    36.724713    32.213157

                             ****ORCA TERMINATED NORMALLY****
TOTAL RUN TIME: 0 days 4 hours 14 minutes 48 seconds 780 msec
