                         Program Version 5.0.3 -  RELEASE  -
|  1> !CASSCF def2-TZVP def2-TZVP/C
|  2> !MOREAD RIJCOSX
|  3> %maxcore 6000
|  4> %moinp "pbe.qro"
|  5> %pal nprocs 2 end
|  6>
|  7> %casscf
|  8>  mult 5,3
|  9>  bweight 1,1
| 10>  nroots 5,45
| 11>  nel 6
| 12>  norb 5
| 13> end
| 14>
| 15>
| 16> *xyzfile 0 5 pbe.xyz
| 17>
| 18>
| 19>                          ****END OF INPUT****

CARTESIAN COORDINATES (ANGSTROEM)
---------------------------------
  Au     9.434609    5.547976    8.841342
  Au    10.466945    6.827914    5.948535
  Au     6.792545    5.025118    8.125305
  Au    10.166535    9.749188   12.103101
  Au     9.792170    7.436210   10.720045
  Au     8.260203    9.844777   10.165285
  Au     7.173257    7.309436    9.749190
  Au    11.623994    7.137632    8.608577
  Au    11.139522    9.758250    9.527025
  Au     8.896761    4.634910    6.303233
  Au     9.266332   10.913050    7.770111
  Au    11.349271    9.286150    6.831361
  Au     8.976115    9.175923    5.435279
  Au     6.298187    8.706566    5.355604
  Au     6.856784    9.656935    7.877643
  Au     5.335508    7.334239    7.608604
  Cr     8.026132    7.221688    7.028374

 Total Charge           Charge          ....    0
 Multiplicity           Mult            ....    5
 Number of Electrons    NEL             ....  328
 Basis Dimension        Dim             ....  685

ORBITAL ENERGIES
----------------

  NO   OCC          E(Eh)            E(eV)
   0   2.0000    -220.493701     -5999.9386
   1   2.0000     -26.328748      -716.4417
   2   2.0000     -22.262441      -605.7918
   3   2.0000     -22.262268      -605.7871
   4   2.0000     -22.248968      -605.4252
   5   2.0000      -4.716740      -128.3490
   6   2.0000      -4.716537      -128.3435
   7   2.0000      -4.716306      -128.3372
   8   2.0000      -4.715906      -128.3263
   9   2.0000      -4.711218      -128.1988
  10   2.0000      -4.710233      -128.1720
  11   2.0000      -4.710178      -128.1705
  12   2.0000      -4.709108      -128.1413
  13   2.0000      -4.708994      -128.1382
  14   2.0000      -4.708867      -128.1348
  15   2.0000      -4.708857      -128.1345
  16   2.0000      -4.707328      -128.0929
  17   2.0000      -4.703467      -127.9879
  18   2.0000      -4.701564      -127.9361
  19   2.0000      -4.701367      -127.9307
  20   2.0000      -4.701160      -127.9251
  21   2.0000      -3.384806       -92.1053
  22   2.0000      -2.757966       -75.0481
  23   2.0000      -2.757541       -75.0365
  24   2.0000      -2.756591       -75.0106
  25   2.0000      -2.754440       -74.9521
  26   2.0000      -2.754366       -74.9501
  27   2.0000      -2.752395       -74.8965
  28   2.0000      -2.751991       -74.8855
  29   2.0000      -2.751935       -74.8839
  30   2.0000      -2.751401       -74.8694
  31   2.0000      -2.750830       -74.8539
  32   2.0000      -2.750794       -74.8529
  33   2.0000      -2.750400       -74.8422
  34   2.0000      -2.749961       -74.8302
  35   2.0000      -2.749127       -74.8075
  36   2.0000      -2.748674       -74.7952
  37   2.0000      -2.748468       -74.7896
  38   2.0000      -2.748201       -74.7824
  39   2.0000      -2.746864       -74.7460
  40   2.0000      -2.746430       -74.7342
  41   2.0000      -2.746066       -74.7243
  42   2.0000      -2.745692       -74.7141
  43   2.0000      -2.745643       -74.7127
  44   2.0000      -2.745135       -74.6989
  45   2.0000      -2.744864       -74.6915
  46   2.0000      -2.744596       -74.6842
  47   2.0000      -2.744238       -74.6745
  48   2.0000      -2.744140       -74.6718
  49   2.0000      -2.743687       -74.6595
  50   2.0000      -2.743120       -74.6441
  51   2.0000      -2.742780       -74.6348
  52   2.0000      -2.742595       -74.6298
  53   2.0000      -2.741943       -74.6121
  54   2.0000      -2.741845       -74.6094
  55   2.0000      -2.741554       -74.6015
  56   2.0000      -2.741266       -74.5936
  57   2.0000      -2.740815       -74.5814
  58   2.0000      -2.740055       -74.5607
  59   2.0000      -2.739353       -74.5416
  60   2.0000      -2.738478       -74.5178
  61   2.0000      -2.737767       -74.4984
  62   2.0000      -2.737340       -74.4868
  63   2.0000      -2.737142       -74.4814
  64   2.0000      -2.736896       -74.4747
  65   2.0000      -2.736085       -74.4527
  66   2.0000      -2.735871       -74.4468
  67   2.0000      -2.735059       -74.4247
  68   2.0000      -2.734742       -74.4161
  69   2.0000      -2.734433       -74.4077
  70   2.0000      -2.151441       -58.5437
  71   2.0000      -2.151349       -58.5412
  72   2.0000      -2.136720       -58.1431
  73   2.0000      -0.564544       -15.3620
  74   2.0000      -0.555424       -15.1139
  75   2.0000      -0.555241       -15.1089
  76   2.0000      -0.553693       -15.0668
  77   2.0000      -0.550496       -14.9798
  78   2.0000      -0.549088       -14.9414
  79   2.0000      -0.541142       -14.7252
  80   2.0000      -0.538277       -14.6473
  81   2.0000      -0.537980       -14.6392
  82   2.0000      -0.537847       -14.6356
  83   2.0000      -0.537508       -14.6263
  84   2.0000      -0.536961       -14.6115
  85   2.0000      -0.535337       -14.5672
  86   2.0000      -0.534721       -14.5505
  87   2.0000      -0.534074       -14.5329
  88   2.0000      -0.533532       -14.5181
  89   2.0000      -0.530413       -14.4333
  90   2.0000      -0.526302       -14.3214
  91   2.0000      -0.524209       -14.2645
  92   2.0000      -0.522476       -14.2173
  93   2.0000      -0.521733       -14.1971
  94   2.0000      -0.518363       -14.1054
  95   2.0000      -0.516353       -14.0507
  96   2.0000      -0.515173       -14.0186
  97   2.0000      -0.514009       -13.9869
  98   2.0000      -0.511824       -13.9274
  99   2.0000      -0.508944       -13.8491
 100   2.0000      -0.505709       -13.7610
 101   2.0000      -0.505301       -13.7499
 102   2.0000      -0.503106       -13.6902
 103   2.0000      -0.500127       -13.6092
 104   2.0000      -0.499971       -13.6049
 105   2.0000      -0.493665       -13.4333
 106   2.0000      -0.493065       -13.4170
 107   2.0000      -0.490611       -13.3502
 108   2.0000      -0.487431       -13.2637
 109   2.0000      -0.484550       -13.1853
 110   2.0000      -0.480011       -13.0618
 111   2.0000      -0.479420       -13.0457
 112   2.0000      -0.475109       -12.9284
 113   2.0000      -0.473719       -12.8905
 114   2.0000      -0.467466       -12.7204
 115   2.0000      -0.466122       -12.6838
 116   2.0000      -0.462629       -12.5888
 117   2.0000      -0.459857       -12.5133
 118   2.0000      -0.458264       -12.4700
 119   2.0000      -0.457421       -12.4471
 120   2.0000      -0.454647       -12.3716
 121   2.0000      -0.454043       -12.3551
 122   2.0000      -0.451661       -12.2903
 123   2.0000      -0.450183       -12.2501
 124   2.0000      -0.448370       -12.2008
 125   2.0000      -0.447458       -12.1760
 126   2.0000      -0.446458       -12.1487
 127   2.0000      -0.445173       -12.1138
 128   2.0000      -0.444847       -12.1049
 129   2.0000      -0.443178       -12.0595
 130   2.0000      -0.442508       -12.0413
 131   2.0000      -0.440306       -11.9813
 132   2.0000      -0.439495       -11.9593
 133   2.0000      -0.436871       -11.8879
 134   2.0000      -0.436455       -11.8765
 135   2.0000      -0.434805       -11.8316
 136   2.0000      -0.434126       -11.8132
 137   2.0000      -0.433590       -11.7986
 138   2.0000      -0.431290       -11.7360
 139   2.0000      -0.430596       -11.7171
 140   2.0000      -0.428483       -11.6596
 141   2.0000      -0.424893       -11.5619
 142   2.0000      -0.424427       -11.5492
 143   2.0000      -0.421433       -11.4678
 144   2.0000      -0.414865       -11.2890
 145   2.0000      -0.413490       -11.2516
 146   2.0000      -0.413106       -11.2412
 147   2.0000      -0.411066       -11.1857
 148   2.0000      -0.409703       -11.1486
 149   2.0000      -0.404795       -11.0150
 150   2.0000      -0.401502       -10.9254
 151   2.0000      -0.400474       -10.8974
 152   2.0000      -0.388002       -10.5581
 153   2.0000      -0.378525       -10.3002
 154   2.0000      -0.373803       -10.1717
 155   2.0000      -0.357314        -9.7230
 156   2.0000      -0.351868        -9.5748
 157   2.0000      -0.263488        -7.1699
 158   2.0000      -0.262963        -7.1556
 159   2.0000      -0.245308        -6.6752
 160   2.0000      -0.227424        -6.1885
 161   1.2000      -0.094683        -2.5764
 162   1.2000      -0.081547        -2.2190
 163   1.2000      -0.100703        -2.7403
 164   1.2000      -0.081511        -2.2180
 165   1.2000      -0.151146        -4.1129
 166   0.0000      -0.019071        -0.5190
 167   0.0000      -0.013414        -0.3650
 168   0.0000      -0.011401        -0.3102
 169   0.0000      -0.000774        -0.0210
 170   0.0000       0.003018         0.0821

MULLIKEN ATOMIC CHARGES AND SPIN DENSITIES
------------------------------------------
   0 Au:    0.046669    0.028764
   1 Au:    0.183786    0.036926
   2 Au:    0.600584    0.019091
   3 Au:    0.637243    0.000776
   4 Au:   -0.234922    0.026315
   5 Au:   -0.224637    0.026181
   6 Au:   -0.064097    0.022088
   7 Au:    0.205610    0.029399
   8 Au:   -0.282349    0.003783
   9 Au:    0.518215    0.027077
  10 Au:    0.203435    0.026362
  11 Au:    0.209533    0.009972
  12 Au:    0.201157    0.041206
  13 Au:    0.515601    0.025700
  14 Au:    0.031543    0.029457
  15 Au:    0.599924    0.019576
  16 Cr:   -3.147295    2.627328
Sum of atomic charges       :    0.0000000

LOEWDIN ATOMIC CHARGES AND SPIN DENSITIES
-----------------------------------------
   0 Au:   -0.015547    0.051268
   1 Au:    0.042157    0.063269
   2 Au:    0.136424    0.042942
   3 Au:    0.204708    0.002639
   4 Au:   -0.068188    0.021738
   5 Au:   -0.068775    0.021340
   6 Au:    0.033222    0.046246
   7 Au:    0.064435    0.028627
   8 Au:   -0.094741    0.007487
   9 Au:    0.194321    0.049641
  10 Au:    0.066467    0.027874
  11 Au:    0.034007    0.028955
  12 Au:    0.041098    0.064097
  13 Au:    0.196752    0.049120
  14 Au:   -0.016838    0.051714
  15 Au:    0.136258    0.043075
  16 Cr:   -0.885762    2.399967

  Mayer bond orders larger than 0.100000
B(  0-Au,  2-Au) :   0.1296 B(  0-Au,  4-Au) :   0.4114 B(  0-Au,  6-Au) :   0.1572
B(  0-Au,  7-Au) :   0.2765 B(  0-Au,  9-Au) :   0.1923 B(  0-Au, 16-Cr) :   0.3112
B(  1-Au,  9-Au) :   0.2179 B(  1-Au, 11-Au) :   0.2021 B(  1-Au, 12-Au) :   0.3237
B(  1-Au, 15-Au) :   0.1099 B(  1-Au, 16-Cr) :   0.3417 B(  2-Au,  6-Au) :   0.1445
B(  2-Au,  9-Au) :   0.1594 B(  2-Au, 12-Au) :   0.1132 B(  2-Au, 15-Au) :   0.1495
B(  2-Au, 16-Cr) :   0.2950 B(  3-Au,  4-Au) :   0.2807 B(  3-Au,  5-Au) :   0.2783
B(  3-Au,  8-Au) :   0.2101 B(  4-Au,  5-Au) :   0.3444 B(  4-Au,  6-Au) :   0.1980
B(  4-Au,  7-Au) :   0.2268 B(  4-Au,  8-Au) :   0.3320 B(  4-Au, 16-Cr) :   0.1190
B(  5-Au,  6-Au) :   0.2070 B(  5-Au,  8-Au) :   0.3292 B(  5-Au, 10-Au) :   0.2153
B(  5-Au, 14-Au) :   0.4055 B(  5-Au, 16-Cr) :   0.1154 B(  6-Au, 14-Au) :   0.1619
B(  6-Au, 15-Au) :   0.1466 B(  6-Au, 16-Cr) :   0.3826 B(  7-Au,  8-Au) :   0.2595
B(  7-Au, 11-Au) :   0.1621 B(  7-Au, 16-Cr) :   0.1753 B(  8-Au, 10-Au) :   0.2617
B(  8-Au, 11-Au) :   0.3560 B(  9-Au, 16-Cr) :   0.3384 B( 10-Au, 11-Au) :   0.1592
B( 10-Au, 14-Au) :   0.2865 B( 10-Au, 16-Cr) :   0.1744 B( 11-Au, 12-Au) :   0.1979
B( 11-Au, 16-Cr) :   0.3180 B( 12-Au, 13-Au) :   0.2155 B( 12-Au, 16-Cr) :   0.3328
B( 13-Au, 14-Au) :   0.1945 B( 13-Au, 15-Au) :   0.1605 B( 13-Au, 16-Cr) :   0.3357
B( 14-Au, 15-Au) :   0.1310 B( 14-Au, 16-Cr) :   0.3199 B( 15-Au, 16-Cr) :   0.2947

FINAL SINGLE POINT ENERGY     -3200.161646885859

DIPOLE MOMENT
-------------
                                X             Y             Z
Electronic contribution:     29.05025      27.86418      40.66638
Nuclear contribution   :    -29.58054     -28.22764     -40.84233
                        -----------------------------------------
Total Dipole Moment    :     -0.53029      -0.36345      -0.17595
                        -----------------------------------------
Magnitude (a.u.)       :      0.66654
Magnitude (Debye)      :      1.69420

Rotational constants in cm-1:     0.000931     0.000712     0.000704
Rotational constants in MHz :    27.903370    21.356495    21.106181

                             ****ORCA TERMINATED NORMALLY****
TOTAL RUN TIME: 0 days 0 hours 55 minutes 42 seconds 30 msec
