                         Program Version 5.0.3 -  RELEASE  -
|  1> %pal nprocs 1 end
|  2>
|  3> !PBE def2-TZVP OPT UNO
|  4> !SLOWCONV KDIIS
|  5>
|  6> %geom maxiter 300 end
|  7>
|  8> *xyzfile 0 5 7.xyz                           ****END OF INPUT****
 Total Charge           Charge          ....    0
 Multiplicity           Mult            ....    5
 Number of Electrons    NEL             ....  216
FINAL SINGLE POINT ENERGY     -2621.737367194613
FINAL SINGLE POINT ENERGY     -2621.737040465686
FINAL SINGLE POINT ENERGY     -2621.738471772854
FINAL SINGLE POINT ENERGY     -2621.738256418191
FINAL SINGLE POINT ENERGY     -2621.739011084467
FINAL SINGLE POINT ENERGY     -2621.739127232016
FINAL SINGLE POINT ENERGY     -2621.739364424021
FINAL SINGLE POINT ENERGY     -2621.739477709497
FINAL SINGLE POINT ENERGY     -2621.739560402840
FINAL SINGLE POINT ENERGY     -2621.739610936123
FINAL SINGLE POINT ENERGY     -2621.739664374506
FINAL SINGLE POINT ENERGY     -2621.739690995413
FINAL SINGLE POINT ENERGY     -2621.739706418603
FINAL SINGLE POINT ENERGY     -2621.739716356849
FINAL SINGLE POINT ENERGY     -2621.739725326830
FINAL SINGLE POINT ENERGY     -2621.739731273811
FINAL SINGLE POINT ENERGY     -2621.739733392443
                    ***********************HURRAY********************

CARTESIAN COORDINATES (ANGSTROEM)
---------------------------------
  Au     6.432031   10.517271    6.931877
  Au     8.708197    9.376141    7.788683
  Au     7.441468    5.242738    9.325941
  Au     9.962846    5.613722    9.929147
  Au     6.528749    5.304903    6.667791
  Au     6.449837    7.892472    6.890640
  Au    12.605309    6.289627    9.585721
  Au    10.825611    8.158868    8.680538
  Au    11.215166    5.562009    7.338309
  Au     9.165300    5.149558    5.754618
  Fe     8.770339    6.756194    7.732205

 Multiplicity           Mult            ....    5
 Number of Electrons    NEL             ....  216
 Basis Dimension        Dim             ....  445

ORBITAL ENERGIES
----------------
                 SPIN UP ORBITALS
  NO   OCC          E(Eh)            E(eV)
   0   1.0000    -254.765284     -6932.5158
   1   1.0000     -29.607910      -805.6722
   2   1.0000     -25.555459      -695.3994
   3   1.0000     -25.537745      -694.9174
   4   1.0000     -25.534763      -694.8362
   5   1.0000      -4.027721      -109.5998
   6   1.0000      -4.026495      -109.5665
   7   1.0000      -4.025955      -109.5518
   8   1.0000      -4.023211      -109.4771
   9   1.0000      -4.021651      -109.4347
  10   1.0000      -4.021062      -109.4187
  11   1.0000      -4.020721      -109.4094
  12   1.0000      -4.019611      -109.3792
  13   1.0000      -4.019083      -109.3648
  14   1.0000      -4.008971      -109.0896
  15   1.0000      -3.387893       -92.1892
  16   1.0000      -2.249495       -61.2119
  17   1.0000      -2.248936       -61.1967
  18   1.0000      -2.243518       -61.0492
  19   1.0000      -2.242344       -61.0173
  20   1.0000      -2.241880       -61.0047
  21   1.0000      -2.241244       -60.9873
  22   1.0000      -2.240790       -60.9750
  23   1.0000      -2.239440       -60.9382
  24   1.0000      -2.238572       -60.9146
  25   1.0000      -2.237461       -60.8844
  26   1.0000      -2.237235       -60.8783
  27   1.0000      -2.236679       -60.8631
  28   1.0000      -2.236281       -60.8523
  29   1.0000      -2.235664       -60.8355
  30   1.0000      -2.235170       -60.8221
  31   1.0000      -2.233953       -60.7889
  32   1.0000      -2.232422       -60.7473
  33   1.0000      -2.232177       -60.7406
  34   1.0000      -2.231728       -60.7284
  35   1.0000      -2.231262       -60.7157
  36   1.0000      -2.230841       -60.7043
  37   1.0000      -2.229519       -60.6683
  38   1.0000      -2.228627       -60.6440
  39   1.0000      -2.228165       -60.6315
  40   1.0000      -2.228128       -60.6304
  41   1.0000      -2.227363       -60.6096
  42   1.0000      -2.226255       -60.5795
  43   1.0000      -2.225983       -60.5721
  44   1.0000      -2.225601       -60.5617
  45   1.0000      -2.222279       -60.4713
  46   1.0000      -2.214446       -60.2581
  47   1.0000      -2.191043       -59.6213
  48   1.0000      -2.185030       -59.4577
  49   1.0000      -0.407800       -11.0968
  50   1.0000      -0.384954       -10.4751
  51   1.0000      -0.379675       -10.3315
  52   1.0000      -0.375074       -10.2063
  53   1.0000      -0.365009        -9.9324
  54   1.0000      -0.363252        -9.8846
  55   1.0000      -0.356766        -9.7081
  56   1.0000      -0.346711        -9.4345
  57   1.0000      -0.345107        -9.3908
  58   1.0000      -0.339319        -9.2333
  59   1.0000      -0.338385        -9.2079
  60   1.0000      -0.336552        -9.1581
  61   1.0000      -0.332832        -9.0568
  62   1.0000      -0.328252        -8.9322
  63   1.0000      -0.325387        -8.8542
  64   1.0000      -0.323954        -8.8152
  65   1.0000      -0.322938        -8.7876
  66   1.0000      -0.315404        -8.5826
  67   1.0000      -0.313987        -8.5440
  68   1.0000      -0.308448        -8.3933
  69   1.0000      -0.304102        -8.2750
  70   1.0000      -0.302759        -8.2385
  71   1.0000      -0.299392        -8.1469
  72   1.0000      -0.298146        -8.1130
  73   1.0000      -0.296626        -8.0716
  74   1.0000      -0.292703        -7.9648
  75   1.0000      -0.290477        -7.9043
  76   1.0000      -0.286104        -7.7853
  77   1.0000      -0.284472        -7.7409
  78   1.0000      -0.280791        -7.6407
  79   1.0000      -0.280326        -7.6281
  80   1.0000      -0.279044        -7.5932
  81   1.0000      -0.276289        -7.5182
  82   1.0000      -0.274154        -7.4601
  83   1.0000      -0.272222        -7.4075
  84   1.0000      -0.271676        -7.3927
  85   1.0000      -0.270554        -7.3621
  86   1.0000      -0.269507        -7.3336
  87   1.0000      -0.266693        -7.2571
  88   1.0000      -0.265734        -7.2310
  89   1.0000      -0.263992        -7.1836
  90   1.0000      -0.263279        -7.1642
  91   1.0000      -0.262116        -7.1325
  92   1.0000      -0.260576        -7.0906
  93   1.0000      -0.259328        -7.0567
  94   1.0000      -0.257539        -7.0080
  95   1.0000      -0.256995        -6.9932
  96   1.0000      -0.252740        -6.8774
  97   1.0000      -0.251721        -6.8497
  98   1.0000      -0.250275        -6.8103
  99   1.0000      -0.249240        -6.7822
 100   1.0000      -0.248180        -6.7533
 101   1.0000      -0.244457        -6.6520
 102   1.0000      -0.243611        -6.6290
 103   1.0000      -0.242939        -6.6107
 104   1.0000      -0.239213        -6.5093
 105   1.0000      -0.235168        -6.3992
 106   1.0000      -0.232719        -6.3326
 107   1.0000      -0.220289        -5.9944
 108   1.0000      -0.214265        -5.8304
 109   1.0000      -0.203088        -5.5263
 110   0.0000      -0.156026        -4.2457
 111   0.0000      -0.147700        -4.0191
 112   0.0000      -0.129660        -3.5282
 113   0.0000      -0.117921        -3.2088
 114   0.0000      -0.103942        -2.8284

                 SPIN DOWN ORBITALS
  NO   OCC          E(Eh)            E(eV)
   0   1.0000    -254.764502     -6932.4945
   1   1.0000     -29.546148      -803.9916
   2   1.0000     -25.503166      -693.9764
   3   1.0000     -25.493170      -693.7044
   4   1.0000     -25.491659      -693.6633
   5   1.0000      -4.026021      -109.5536
   6   1.0000      -4.025631      -109.5430
   7   1.0000      -4.024589      -109.5146
   8   1.0000      -4.021844      -109.4400
   9   1.0000      -4.021568      -109.4324
  10   1.0000      -4.020141      -109.3936
  11   1.0000      -4.020001      -109.3898
  12   1.0000      -4.017820      -109.3304
  13   1.0000      -4.017419      -109.3195
  14   1.0000      -4.008803      -109.0851
  15   1.0000      -3.247638       -88.3727
  16   1.0000      -2.247978       -61.1706
  17   1.0000      -2.246572       -61.1323
  18   1.0000      -2.241626       -60.9978
  19   1.0000      -2.241009       -60.9810
  20   1.0000      -2.240318       -60.9622
  21   1.0000      -2.239980       -60.9530
  22   1.0000      -2.239004       -60.9264
  23   1.0000      -2.237462       -60.8844
  24   1.0000      -2.237169       -60.8765
  25   1.0000      -2.236790       -60.8661
  26   1.0000      -2.236386       -60.8552
  27   1.0000      -2.235007       -60.8176
  28   1.0000      -2.234328       -60.7992
  29   1.0000      -2.233953       -60.7889
  30   1.0000      -2.233548       -60.7779
  31   1.0000      -2.232758       -60.7564
  32   1.0000      -2.232002       -60.7359
  33   1.0000      -2.231856       -60.7319
  34   1.0000      -2.230579       -60.6971
  35   1.0000      -2.230263       -60.6885
  36   1.0000      -2.229239       -60.6607
  37   1.0000      -2.228792       -60.6485
  38   1.0000      -2.228342       -60.6363
  39   1.0000      -2.227540       -60.6144
  40   1.0000      -2.227387       -60.6103
  41   1.0000      -2.226702       -60.5917
  42   1.0000      -2.224296       -60.5262
  43   1.0000      -2.223929       -60.5162
  44   1.0000      -2.222119       -60.4669
  45   1.0000      -2.214258       -60.2530
  46   1.0000      -2.071797       -56.3765
  47   1.0000      -2.060252       -56.0623
  48   1.0000      -2.059171       -56.0329
  49   1.0000      -0.403685       -10.9848
  50   1.0000      -0.383631       -10.4391
  51   1.0000      -0.375371       -10.2144
  52   1.0000      -0.368118       -10.0170
  53   1.0000      -0.359855        -9.7922
  54   1.0000      -0.354047        -9.6341
  55   1.0000      -0.347189        -9.4475
  56   1.0000      -0.339690        -9.2434
  57   1.0000      -0.334802        -9.1104
  58   1.0000      -0.333825        -9.0838
  59   1.0000      -0.330080        -8.9819
  60   1.0000      -0.328119        -8.9286
  61   1.0000      -0.324212        -8.8223
  62   1.0000      -0.319484        -8.6936
  63   1.0000      -0.317613        -8.6427
  64   1.0000      -0.316864        -8.6223
  65   1.0000      -0.312264        -8.4971
  66   1.0000      -0.311690        -8.4815
  67   1.0000      -0.309356        -8.4180
  68   1.0000      -0.302279        -8.2254
  69   1.0000      -0.299105        -8.1391
  70   1.0000      -0.296709        -8.0739
  71   1.0000      -0.295179        -8.0322
  72   1.0000      -0.293675        -7.9913
  73   1.0000      -0.291135        -7.9222
  74   1.0000      -0.289455        -7.8765
  75   1.0000      -0.287977        -7.8362
  76   1.0000      -0.282915        -7.6985
  77   1.0000      -0.281542        -7.6612
  78   1.0000      -0.277503        -7.5512
  79   1.0000      -0.275610        -7.4997
  80   1.0000      -0.273296        -7.4368
  81   1.0000      -0.272301        -7.4097
  82   1.0000      -0.270598        -7.3634
  83   1.0000      -0.270228        -7.3533
  84   1.0000      -0.269409        -7.3310
  85   1.0000      -0.267577        -7.2811
  86   1.0000      -0.266506        -7.2520
  87   1.0000      -0.264310        -7.1923
  88   1.0000      -0.263618        -7.1734
  89   1.0000      -0.259517        -7.0618
  90   1.0000      -0.258297        -7.0286
  91   1.0000      -0.256054        -6.9676
  92   1.0000      -0.254948        -6.9375
  93   1.0000      -0.253028        -6.8852
  94   1.0000      -0.251569        -6.8455
  95   1.0000      -0.249718        -6.7952
  96   1.0000      -0.248461        -6.7610
  97   1.0000      -0.247380        -6.7315
  98   1.0000      -0.243506        -6.6261
  99   1.0000      -0.242050        -6.5865
 100   1.0000      -0.236948        -6.4477
 101   1.0000      -0.231579        -6.3016
 102   1.0000      -0.224269        -6.1027
 103   1.0000      -0.220747        -6.0068
 104   1.0000      -0.210607        -5.7309
 105   1.0000      -0.185046        -5.0354
 106   0.0000      -0.173638        -4.7249
 107   0.0000      -0.169194        -4.6040
 108   0.0000      -0.164979        -4.4893
 109   0.0000      -0.150401        -4.0926
 110   0.0000      -0.143094        -3.8938

MULLIKEN ATOMIC CHARGES AND SPIN POPULATIONS
--------------------------------------------
   0 Au:    0.332473    0.071538
   1 Au:   -0.054913    0.086298
   2 Au:    0.185055    0.097774
   3 Au:    0.020251    0.043884
   4 Au:    0.290588    0.034187
   5 Au:   -0.146156    0.063100
   6 Au:    0.367739    0.061260
   7 Au:    0.005151    0.085109
   8 Au:    0.039411    0.029247
   9 Au:    0.178512    0.085402
  10 Fe:   -1.218111    3.342202
Sum of atomic charges         :   -0.0000000

LOEWDIN ATOMIC CHARGES AND SPIN POPULATIONS
-------------------------------------------
   0 Au:    0.086703    0.056477
   1 Au:    0.010224    0.098843
   2 Au:    0.095054    0.084257
   3 Au:   -0.028180    0.057032
   4 Au:    0.040640    0.019216
   5 Au:   -0.052659    0.069027
   6 Au:    0.102697    0.046551
   7 Au:   -0.009994    0.076187
   8 Au:   -0.032162    0.045591
   9 Au:    0.095275    0.070094
  10 Fe:   -0.307597    3.376724

  Mayer bond orders larger than 0.100000
B(  0-Au,  1-Au) :   0.4355 B(  0-Au,  5-Au) :   0.5726 B(  1-Au,  5-Au) :   0.2817
B(  1-Au,  7-Au) :   0.5492 B(  1-Au, 10-Fe) :   0.6069 B(  2-Au,  3-Au) :   0.5377
B(  2-Au,  4-Au) :   0.1656 B(  2-Au, 10-Fe) :   0.6482 B(  3-Au,  6-Au) :   0.3544
B(  3-Au,  7-Au) :   0.1286 B(  3-Au,  8-Au) :   0.2176 B(  3-Au, 10-Fe) :   0.5055
B(  4-Au,  5-Au) :   0.5757 B(  4-Au,  9-Au) :   0.1821 B(  4-Au, 10-Fe) :   0.3865
B(  5-Au, 10-Fe) :   0.4008 B(  6-Au,  7-Au) :   0.3479 B(  6-Au,  8-Au) :   0.3574
B(  7-Au,  8-Au) :   0.1297 B(  7-Au, 10-Fe) :   0.6291 B(  8-Au,  9-Au) :   0.5137
B(  8-Au, 10-Fe) :   0.4984 B(  9-Au, 10-Fe) :   0.6478

FINAL SINGLE POINT ENERGY     -2621.739733824596

DIPOLE MOMENT
-------------
                                X             Y             Z
Electronic contribution:      6.18230       5.72726       5.97334
Nuclear contribution   :     -6.17836      -5.85356      -5.95145
                        -----------------------------------------
Total Dipole Moment    :      0.00395      -0.12631       0.02189
                        -----------------------------------------
Magnitude (a.u.)       :      0.12825
Magnitude (Debye)      :      0.32599

Rotational constants in cm-1:     0.002114     0.001271     0.001021
Rotational constants in MHz :    63.362502    38.099468    30.596076

                             ****ORCA TERMINATED NORMALLY****
TOTAL RUN TIME: 0 days 1 hours 26 minutes 56 seconds 730 msec
