                         Program Version 5.0.3 -  RELEASE  -
|  1> !CASSCF def2-TZVP def2-TZVP/C
|  2> !MOREAD RIJCOSX
|  3> %maxcore 6000
|  4> %moinp "pbe.qro"
|  5> %pal nprocs 2 end
|  6>
|  7> %casscf
|  8>  mult 5,3
|  9>  bweight 1,1
| 10>  nroots 5,45
| 11>  nel 6
| 12>  norb 5
| 13> end
| 14>
| 15>
| 16> *xyzfile 0 5 pbe.xyz
| 17>
| 18>
| 19>                          ****END OF INPUT****

CARTESIAN COORDINATES (ANGSTROEM)
---------------------------------
  Au     6.072828   10.225577    6.346267
  Au     5.319850    7.580037    7.271152
  Au     7.491862    5.970346    7.598326
  Au     7.421517    8.985930    8.450828
  Au     9.256769    7.200801    9.500032
  Au    10.036991    9.880585    8.579552
  Au     8.774391   10.454423    6.064896
  Au    11.452148    9.587235    6.120835
  Au    11.763912    7.647248    8.221301
  Au     8.911294    5.790258    5.107977
  Au    11.548039    6.783227    5.515033
  Au     9.672319    8.472304    4.189061
  Au     7.153253    7.925323    5.195241
  Au    10.224452    5.305806    7.595382
  Cr     9.379189    7.860585    6.844275

 Total Charge           Charge          ....    0
 Multiplicity           Mult            ....    5
 Number of Electrons    NEL             ....  290
 Basis Dimension        Dim             ....  605

ORBITAL ENERGIES
----------------

  NO   OCC          E(Eh)            E(eV)
   0   2.0000    -220.556135     -6001.6376
   1   2.0000     -26.402515      -718.4490
   2   2.0000     -22.338611      -607.8645
   3   2.0000     -22.331774      -607.6785
   4   2.0000     -22.323350      -607.4492
   5   2.0000      -4.719260      -128.4176
   6   2.0000      -4.719252      -128.4174
   7   2.0000      -4.719027      -128.4113
   8   2.0000      -4.719014      -128.4109
   9   2.0000      -4.718876      -128.4071
  10   2.0000      -4.718859      -128.4067
  11   2.0000      -4.712884      -128.2441
  12   2.0000      -4.712734      -128.2400
  13   2.0000      -4.705435      -128.0414
  14   2.0000      -4.705430      -128.0413
  15   2.0000      -4.704204      -128.0079
  16   2.0000      -4.704155      -128.0066
  17   2.0000      -4.703373      -127.9853
  18   2.0000      -4.703216      -127.9810
  19   2.0000      -3.450197       -93.8846
  20   2.0000      -2.761255       -75.1376
  21   2.0000      -2.761242       -75.1372
  22   2.0000      -2.758281       -75.0566
  23   2.0000      -2.758262       -75.0561
  24   2.0000      -2.758054       -75.0505
  25   2.0000      -2.758034       -75.0499
  26   2.0000      -2.756421       -75.0060
  27   2.0000      -2.756311       -75.0030
  28   2.0000      -2.755246       -74.9741
  29   2.0000      -2.755147       -74.9713
  30   2.0000      -2.754888       -74.9643
  31   2.0000      -2.754381       -74.9505
  32   2.0000      -2.753293       -74.9209
  33   2.0000      -2.753100       -74.9157
  34   2.0000      -2.753011       -74.9132
  35   2.0000      -2.752960       -74.9118
  36   2.0000      -2.752068       -74.8876
  37   2.0000      -2.751942       -74.8841
  38   2.0000      -2.751923       -74.8836
  39   2.0000      -2.749632       -74.8213
  40   2.0000      -2.748399       -74.7877
  41   2.0000      -2.748231       -74.7832
  42   2.0000      -2.747535       -74.7642
  43   2.0000      -2.745653       -74.7130
  44   2.0000      -2.744437       -74.6799
  45   2.0000      -2.744267       -74.6753
  46   2.0000      -2.741629       -74.6035
  47   2.0000      -2.741478       -74.5994
  48   2.0000      -2.740296       -74.5672
  49   2.0000      -2.740023       -74.5598
  50   2.0000      -2.739991       -74.5589
  51   2.0000      -2.739967       -74.5583
  52   2.0000      -2.739802       -74.5538
  53   2.0000      -2.739079       -74.5341
  54   2.0000      -2.738869       -74.5284
  55   2.0000      -2.738212       -74.5105
  56   2.0000      -2.738139       -74.5085
  57   2.0000      -2.737695       -74.4965
  58   2.0000      -2.737692       -74.4964
  59   2.0000      -2.737521       -74.4917
  60   2.0000      -2.735611       -74.4398
  61   2.0000      -2.734924       -74.4211
  62   2.0000      -2.214272       -60.2534
  63   2.0000      -2.208350       -60.0923
  64   2.0000      -2.202159       -59.9238
  65   2.0000      -0.574746       -15.6396
  66   2.0000      -0.556274       -15.1370
  67   2.0000      -0.552696       -15.0396
  68   2.0000      -0.550823       -14.9887
  69   2.0000      -0.545376       -14.8404
  70   2.0000      -0.543570       -14.7913
  71   2.0000      -0.542909       -14.7733
  72   2.0000      -0.542315       -14.7572
  73   2.0000      -0.541385       -14.7318
  74   2.0000      -0.541150       -14.7254
  75   2.0000      -0.540445       -14.7063
  76   2.0000      -0.538275       -14.6472
  77   2.0000      -0.535186       -14.5632
  78   2.0000      -0.534724       -14.5506
  79   2.0000      -0.533935       -14.5291
  80   2.0000      -0.533181       -14.5086
  81   2.0000      -0.533164       -14.5081
  82   2.0000      -0.530359       -14.4318
  83   2.0000      -0.528877       -14.3915
  84   2.0000      -0.526307       -14.3215
  85   2.0000      -0.525685       -14.3046
  86   2.0000      -0.524116       -14.2619
  87   2.0000      -0.516901       -14.0656
  88   2.0000      -0.516242       -14.0476
  89   2.0000      -0.514887       -14.0108
  90   2.0000      -0.502066       -13.6619
  91   2.0000      -0.501974       -13.6594
  92   2.0000      -0.499796       -13.6002
  93   2.0000      -0.498065       -13.5530
  94   2.0000      -0.493295       -13.4232
  95   2.0000      -0.491470       -13.3736
  96   2.0000      -0.490750       -13.3540
  97   2.0000      -0.490157       -13.3378
  98   2.0000      -0.484035       -13.1713
  99   2.0000      -0.480933       -13.0868
 100   2.0000      -0.478474       -13.0199
 101   2.0000      -0.467696       -12.7267
 102   2.0000      -0.461212       -12.5502
 103   2.0000      -0.460295       -12.5253
 104   2.0000      -0.458190       -12.4680
 105   2.0000      -0.457850       -12.4587
 106   2.0000      -0.457664       -12.4537
 107   2.0000      -0.455988       -12.4081
 108   2.0000      -0.455093       -12.3837
 109   2.0000      -0.452636       -12.3169
 110   2.0000      -0.450868       -12.2688
 111   2.0000      -0.450333       -12.2542
 112   2.0000      -0.448699       -12.2097
 113   2.0000      -0.446158       -12.1406
 114   2.0000      -0.444990       -12.1088
 115   2.0000      -0.444367       -12.0918
 116   2.0000      -0.443140       -12.0585
 117   2.0000      -0.442278       -12.0350
 118   2.0000      -0.439822       -11.9682
 119   2.0000      -0.438782       -11.9399
 120   2.0000      -0.437477       -11.9044
 121   2.0000      -0.434381       -11.8201
 122   2.0000      -0.433756       -11.8031
 123   2.0000      -0.429639       -11.6911
 124   2.0000      -0.428613       -11.6632
 125   2.0000      -0.427330       -11.6282
 126   2.0000      -0.424461       -11.5502
 127   2.0000      -0.424230       -11.5439
 128   2.0000      -0.422122       -11.4865
 129   2.0000      -0.420952       -11.4547
 130   2.0000      -0.418126       -11.3778
 131   2.0000      -0.411369       -11.1939
 132   2.0000      -0.410903       -11.1812
 133   2.0000      -0.407121       -11.0783
 134   2.0000      -0.395906       -10.7732
 135   2.0000      -0.388773       -10.5791
 136   2.0000      -0.372345       -10.1320
 137   2.0000      -0.345613        -9.4046
 138   2.0000      -0.340049        -9.2532
 139   2.0000      -0.254437        -6.9236
 140   2.0000      -0.235139        -6.3984
 141   2.0000      -0.223218        -6.0741
 142   1.2000      -0.128673        -3.5014
 143   1.2000      -0.146692        -3.9917
 144   1.2000      -0.151696        -4.1279
 145   1.2000      -0.124826        -3.3967
 146   1.2000      -0.129771        -3.5313
 147   0.0000      -0.015008        -0.4084
 148   0.0000       0.000023         0.0006
 149   0.0000       0.006098         0.1659
 150   0.0000       0.013268         0.3610
 151   0.0000       0.018854         0.5130

MULLIKEN ATOMIC CHARGES AND SPIN DENSITIES
------------------------------------------
   0 Au:    0.318062    0.016262
   1 Au:    0.316611    0.016272
   2 Au:    0.349737    0.017515
   3 Au:    0.137994    0.031689
   4 Au:    0.731794    0.018231
   5 Au:    0.729184    0.018524
   6 Au:    0.351312    0.017495
   7 Au:    0.646373    0.021605
   8 Au:    0.605583    0.028706
   9 Au:    0.727933    0.018498
  10 Au:    0.605174    0.028631
  11 Au:    0.731616    0.018238
  12 Au:    0.137988    0.031639
  13 Au:    0.647124    0.021472
  14 Cr:   -7.036485    2.695222
Sum of atomic charges       :    0.0000000

LOEWDIN ATOMIC CHARGES AND SPIN DENSITIES
-----------------------------------------
   0 Au:    0.133077    0.027670
   1 Au:    0.132146    0.027696
   2 Au:    0.039601    0.044465
   3 Au:    0.003829    0.057615
   4 Au:    0.150094    0.059814
   5 Au:    0.149641    0.059711
   6 Au:    0.039831    0.044463
   7 Au:    0.112843    0.049462
   8 Au:    0.118164    0.064766
   9 Au:    0.149528    0.059748
  10 Au:    0.118180    0.064650
  11 Au:    0.149948    0.059761
  12 Au:    0.003889    0.057640
  13 Au:    0.113002    0.049394
  14 Cr:   -1.413772    2.273144

  Mayer bond orders larger than 0.100000
B(  0-Au,  3-Au) :   0.2121 B(  0-Au,  6-Au) :   0.1973 B(  0-Au, 12-Au) :   0.2080
B(  0-Au, 14-Cr) :   0.4979 B(  1-Au,  2-Au) :   0.1975 B(  1-Au,  3-Au) :   0.2070
B(  1-Au, 12-Au) :   0.2114 B(  1-Au, 14-Cr) :   0.4992 B(  2-Au,  7-Au) :   0.1580
B(  2-Au, 13-Au) :   0.1686 B(  2-Au, 14-Cr) :   0.4359 B(  3-Au,  4-Au) :   0.1164
B(  3-Au,  5-Au) :   0.1166 B(  3-Au, 10-Au) :   0.1454 B(  3-Au, 12-Au) :   0.1384
B(  3-Au, 14-Cr) :   0.4372 B(  4-Au, 11-Au) :   0.1641 B(  4-Au, 14-Cr) :   0.1720
B(  5-Au,  9-Au) :   0.1640 B(  5-Au, 14-Cr) :   0.1737 B(  6-Au,  7-Au) :   0.1680
B(  6-Au, 13-Au) :   0.1576 B(  6-Au, 14-Cr) :   0.4339 B(  7-Au,  8-Au) :   0.1056
B(  7-Au, 10-Au) :   0.1073 B(  7-Au, 14-Cr) :   0.2700 B(  8-Au, 10-Au) :   0.1263
B(  8-Au, 12-Au) :   0.1455 B(  8-Au, 13-Au) :   0.1068 B(  8-Au, 14-Cr) :   0.2683
B(  9-Au, 12-Au) :   0.1173 B(  9-Au, 14-Cr) :   0.1738 B( 10-Au, 13-Au) :   0.1059
B( 10-Au, 14-Cr) :   0.2685 B( 11-Au, 12-Au) :   0.1160 B( 11-Au, 14-Cr) :   0.1727
B( 12-Au, 14-Cr) :   0.4370 B( 13-Au, 14-Cr) :   0.2691

FINAL SINGLE POINT ENERGY     -2930.483395528439

DIPOLE MOMENT
-------------
                                X             Y             Z
Electronic contribution:    -15.56211       4.41625      -0.16075
Nuclear contribution   :     15.61589      -4.42875       0.16087
                        -----------------------------------------
Total Dipole Moment    :      0.05378      -0.01250       0.00012
                        -----------------------------------------
Magnitude (a.u.)       :      0.05521
Magnitude (Debye)      :      0.14034

Rotational constants in cm-1:     0.001273     0.000991     0.000941
Rotational constants in MHz :    38.154789    29.702152    28.218002

                             ****ORCA TERMINATED NORMALLY****
TOTAL RUN TIME: 0 days 1 hours 0 minutes 13 seconds 20 msec
