                         Program Version 5.0.3 -  RELEASE  -
|  1> %pal nprocs 1 end
|  2>
|  3> !PBE def2-TZVP OPT UNO
|  4> !SLOWCONV KDIIS
|  5>
|  6> %geom maxiter 300 end
|  7>
|  8> *xyzfile 0 5 3.xyz                           ****END OF INPUT****
 Total Charge           Charge          ....    0
 Multiplicity           Mult            ....    5
 Number of Electrons    NEL             ....  328
FINAL SINGLE POINT ENERGY     -3217.506069271057
FINAL SINGLE POINT ENERGY     -3217.510404305795
FINAL SINGLE POINT ENERGY     -3217.512435965510
FINAL SINGLE POINT ENERGY     -3217.513155699437
FINAL SINGLE POINT ENERGY     -3217.513724510903
FINAL SINGLE POINT ENERGY     -3217.514137515671
FINAL SINGLE POINT ENERGY     -3217.514395926577
FINAL SINGLE POINT ENERGY     -3217.514773272309
FINAL SINGLE POINT ENERGY     -3217.515195578627
FINAL SINGLE POINT ENERGY     -3217.515628520411
FINAL SINGLE POINT ENERGY     -3217.515864213537
FINAL SINGLE POINT ENERGY     -3217.516182620520
FINAL SINGLE POINT ENERGY     -3217.516527162971
FINAL SINGLE POINT ENERGY     -3217.516695397638
FINAL SINGLE POINT ENERGY     -3217.516767609270
FINAL SINGLE POINT ENERGY     -3217.516813466940
FINAL SINGLE POINT ENERGY     -3217.516809028533
FINAL SINGLE POINT ENERGY     -3217.516833563135
FINAL SINGLE POINT ENERGY     -3217.516842978185
                    ***********************HURRAY********************

CARTESIAN COORDINATES (ANGSTROEM)
---------------------------------
  Au    11.452307    8.892787   10.690354
  Au     8.607598    8.987557   10.785391
  Au    10.023703   10.518630    8.842586
  Au     7.358518    9.932714    8.530301
  Au     6.798492    9.578869    5.836858
  Au     9.605747    9.604374    6.280759
  Au     8.414501    7.874159    4.380944
  Au     5.428822    8.081922    7.787489
  Au     8.804963    5.012180    8.138241
  Au    10.408386    6.762879    5.905895
  Au     8.082681    5.260395    5.437866
  Au     7.146219    6.917323    9.718091
  Au     6.160052    5.425187    7.522585
  Au    11.382527    8.258412    7.999006
  Au     9.929750    6.682322   10.015420
  Au    11.530469    5.463638    8.074955
  Cr     8.039148    7.486176    7.147554

 Multiplicity           Mult            ....    5
 Number of Electrons    NEL             ....  328
 Basis Dimension        Dim             ....  685

ORBITAL ENERGIES
----------------
                 SPIN UP ORBITALS
  NO   OCC          E(Eh)            E(eV)
   0   1.0000    -214.485216     -5836.4394
   1   1.0000     -24.283114      -660.7771
   2   1.0000     -20.648430      -561.8723
   3   1.0000     -20.648011      -561.8609
   4   1.0000     -20.641990      -561.6971
   5   1.0000      -4.039160      -109.9111
   6   1.0000      -4.038821      -109.9019
   7   1.0000      -4.030691      -109.6807
   8   1.0000      -4.030159      -109.6662
   9   1.0000      -4.028309      -109.6159
  10   1.0000      -4.028181      -109.6124
  11   1.0000      -4.028154      -109.6116
  12   1.0000      -4.028049      -109.6088
  13   1.0000      -4.027986      -109.6071
  14   1.0000      -4.027804      -109.6021
  15   1.0000      -4.024344      -109.5080
  16   1.0000      -4.023134      -109.4750
  17   1.0000      -4.023011      -109.4717
  18   1.0000      -4.021297      -109.4251
  19   1.0000      -4.021091      -109.4194
  20   1.0000      -4.016094      -109.2835
  21   1.0000      -2.793227       -76.0076
  22   1.0000      -2.255811       -61.3837
  23   1.0000      -2.255495       -61.3751
  24   1.0000      -2.251892       -61.2771
  25   1.0000      -2.251517       -61.2669
  26   1.0000      -2.248784       -61.1925
  27   1.0000      -2.248157       -61.1755
  28   1.0000      -2.247141       -61.1478
  29   1.0000      -2.246761       -61.1375
  30   1.0000      -2.245185       -61.0946
  31   1.0000      -2.244833       -61.0850
  32   1.0000      -2.244690       -61.0811
  33   1.0000      -2.243764       -61.0559
  34   1.0000      -2.243505       -61.0489
  35   1.0000      -2.243172       -61.0398
  36   1.0000      -2.243034       -61.0361
  37   1.0000      -2.242605       -61.0244
  38   1.0000      -2.242521       -61.0221
  39   1.0000      -2.242294       -61.0159
  40   1.0000      -2.241943       -61.0064
  41   1.0000      -2.241387       -60.9912
  42   1.0000      -2.241188       -60.9858
  43   1.0000      -2.240953       -60.9794
  44   1.0000      -2.240472       -60.9664
  45   1.0000      -2.239910       -60.9511
  46   1.0000      -2.239827       -60.9488
  47   1.0000      -2.238741       -60.9192
  48   1.0000      -2.238556       -60.9142
  49   1.0000      -2.237932       -60.8972
  50   1.0000      -2.237278       -60.8794
  51   1.0000      -2.237143       -60.8758
  52   1.0000      -2.237060       -60.8735
  53   1.0000      -2.236783       -60.8660
  54   1.0000      -2.236321       -60.8534
  55   1.0000      -2.236229       -60.8509
  56   1.0000      -2.236186       -60.8497
  57   1.0000      -2.235997       -60.8446
  58   1.0000      -2.235419       -60.8288
  59   1.0000      -2.235158       -60.8217
  60   1.0000      -2.234659       -60.8082
  61   1.0000      -2.234145       -60.7942
  62   1.0000      -2.234024       -60.7909
  63   1.0000      -2.233808       -60.7850
  64   1.0000      -2.233491       -60.7764
  65   1.0000      -2.231653       -60.7264
  66   1.0000      -2.230301       -60.6896
  67   1.0000      -2.230045       -60.6826
  68   1.0000      -2.228497       -60.6405
  69   1.0000      -2.227880       -60.6237
  70   1.0000      -1.786199       -48.6049
  71   1.0000      -1.786162       -48.6039
  72   1.0000      -1.777571       -48.3702
  73   1.0000      -0.428753       -11.6669
  74   1.0000      -0.393557       -10.7092
  75   1.0000      -0.393271       -10.7014
  76   1.0000      -0.388283       -10.5657
  77   1.0000      -0.376900       -10.2560
  78   1.0000      -0.375647       -10.2219
  79   1.0000      -0.369244       -10.0476
  80   1.0000      -0.368583       -10.0296
  81   1.0000      -0.365800        -9.9539
  82   1.0000      -0.361470        -9.8361
  83   1.0000      -0.359621        -9.7858
  84   1.0000      -0.359475        -9.7818
  85   1.0000      -0.356724        -9.7070
  86   1.0000      -0.356207        -9.6929
  87   1.0000      -0.351387        -9.5617
  88   1.0000      -0.350467        -9.5367
  89   1.0000      -0.349778        -9.5179
  90   1.0000      -0.347634        -9.4596
  91   1.0000      -0.345872        -9.4117
  92   1.0000      -0.344669        -9.3789
  93   1.0000      -0.343270        -9.3409
  94   1.0000      -0.340986        -9.2787
  95   1.0000      -0.338221        -9.2035
  96   1.0000      -0.334159        -9.0929
  97   1.0000      -0.332595        -9.0504
  98   1.0000      -0.329885        -8.9766
  99   1.0000      -0.328255        -8.9323
 100   1.0000      -0.327298        -8.9062
 101   1.0000      -0.325730        -8.8636
 102   1.0000      -0.325190        -8.8489
 103   1.0000      -0.323479        -8.8023
 104   1.0000      -0.320951        -8.7335
 105   1.0000      -0.318975        -8.6798
 106   1.0000      -0.318525        -8.6675
 107   1.0000      -0.313290        -8.5250
 108   1.0000      -0.311909        -8.4875
 109   1.0000      -0.307593        -8.3700
 110   1.0000      -0.306789        -8.3482
 111   1.0000      -0.300604        -8.1799
 112   1.0000      -0.298831        -8.1316
 113   1.0000      -0.297750        -8.1022
 114   1.0000      -0.295069        -8.0292
 115   1.0000      -0.292515        -7.9597
 116   1.0000      -0.291984        -7.9453
 117   1.0000      -0.289545        -7.8789
 118   1.0000      -0.288095        -7.8395
 119   1.0000      -0.287999        -7.8368
 120   1.0000      -0.286658        -7.8004
 121   1.0000      -0.283904        -7.7254
 122   1.0000      -0.279819        -7.6142
 123   1.0000      -0.279351        -7.6015
 124   1.0000      -0.277492        -7.5509
 125   1.0000      -0.277096        -7.5402
 126   1.0000      -0.276419        -7.5217
 127   1.0000      -0.275027        -7.4839
 128   1.0000      -0.274161        -7.4603
 129   1.0000      -0.272430        -7.4132
 130   1.0000      -0.271069        -7.3762
 131   1.0000      -0.270046        -7.3483
 132   1.0000      -0.268977        -7.3192
 133   1.0000      -0.268695        -7.3116
 134   1.0000      -0.267307        -7.2738
 135   1.0000      -0.265836        -7.2338
 136   1.0000      -0.265057        -7.2126
 137   1.0000      -0.263791        -7.1781
 138   1.0000      -0.261848        -7.1252
 139   1.0000      -0.261451        -7.1144
 140   1.0000      -0.258386        -7.0310
 141   1.0000      -0.257416        -7.0046
 142   1.0000      -0.256252        -6.9730
 143   1.0000      -0.254872        -6.9354
 144   1.0000      -0.253392        -6.8951
 145   1.0000      -0.253177        -6.8893
 146   1.0000      -0.250361        -6.8127
 147   1.0000      -0.249747        -6.7960
 148   1.0000      -0.249418        -6.7870
 149   1.0000      -0.249124        -6.7790
 150   1.0000      -0.246226        -6.7002
 151   1.0000      -0.246146        -6.6980
 152   1.0000      -0.245156        -6.6710
 153   1.0000      -0.242940        -6.6107
 154   1.0000      -0.242412        -6.5964
 155   1.0000      -0.235073        -6.3967
 156   1.0000      -0.232462        -6.3256
 157   1.0000      -0.227213        -6.1828
 158   1.0000      -0.222237        -6.0474
 159   1.0000      -0.220620        -6.0034
 160   1.0000      -0.215790        -5.8720
 161   1.0000      -0.214542        -5.8380
 162   1.0000      -0.205186        -5.5834
 163   1.0000      -0.195573        -5.3218
 164   1.0000      -0.191090        -5.1998
 165   1.0000      -0.187382        -5.0989
 166   0.0000      -0.179038        -4.8719
 167   0.0000      -0.154312        -4.1990
 168   0.0000      -0.141402        -3.8478
 169   0.0000      -0.137885        -3.7520
 170   0.0000      -0.129065        -3.5120

                 SPIN DOWN ORBITALS
  NO   OCC          E(Eh)            E(eV)
   0   1.0000    -214.484797     -5836.4280
   1   1.0000     -24.233611      -659.4301
   2   1.0000     -20.612474      -560.8939
   3   1.0000     -20.612262      -560.8882
   4   1.0000     -20.600273      -560.5619
   5   1.0000      -4.038766      -109.9004
   6   1.0000      -4.038398      -109.8904
   7   1.0000      -4.029918      -109.6596
   8   1.0000      -4.029378      -109.6450
   9   1.0000      -4.027954      -109.6062
  10   1.0000      -4.027925      -109.6054
  11   1.0000      -4.027724      -109.6000
  12   1.0000      -4.027531      -109.5947
  13   1.0000      -4.027395      -109.5910
  14   1.0000      -4.027384      -109.5907
  15   1.0000      -4.023542      -109.4862
  16   1.0000      -4.023214      -109.4772
  17   1.0000      -4.022160      -109.4485
  18   1.0000      -4.021167      -109.4215
  19   1.0000      -4.020969      -109.4161
  20   1.0000      -4.015783      -109.2750
  21   1.0000      -2.659270       -72.3624
  22   1.0000      -2.255335       -61.3708
  23   1.0000      -2.254986       -61.3613
  24   1.0000      -2.251460       -61.2653
  25   1.0000      -2.251056       -61.2543
  26   1.0000      -2.248412       -61.1824
  27   1.0000      -2.247757       -61.1646
  28   1.0000      -2.246371       -61.1269
  29   1.0000      -2.246007       -61.1170
  30   1.0000      -2.244863       -61.0858
  31   1.0000      -2.244515       -61.0764
  32   1.0000      -2.244161       -61.0667
  33   1.0000      -2.243177       -61.0399
  34   1.0000      -2.242850       -61.0310
  35   1.0000      -2.242633       -61.0252
  36   1.0000      -2.242495       -61.0214
  37   1.0000      -2.242025       -61.0086
  38   1.0000      -2.241728       -61.0005
  39   1.0000      -2.241554       -60.9958
  40   1.0000      -2.241150       -60.9848
  41   1.0000      -2.240715       -60.9730
  42   1.0000      -2.240566       -60.9689
  43   1.0000      -2.240371       -60.9636
  44   1.0000      -2.240009       -60.9537
  45   1.0000      -2.239435       -60.9381
  46   1.0000      -2.239348       -60.9358
  47   1.0000      -2.238064       -60.9008
  48   1.0000      -2.237803       -60.8937
  49   1.0000      -2.237440       -60.8838
  50   1.0000      -2.237176       -60.8767
  51   1.0000      -2.236986       -60.8715
  52   1.0000      -2.236924       -60.8698
  53   1.0000      -2.236157       -60.8489
  54   1.0000      -2.236024       -60.8453
  55   1.0000      -2.235899       -60.8419
  56   1.0000      -2.235783       -60.8387
  57   1.0000      -2.235595       -60.8336
  58   1.0000      -2.234985       -60.8170
  59   1.0000      -2.234914       -60.8151
  60   1.0000      -2.234419       -60.8016
  61   1.0000      -2.233979       -60.7897
  62   1.0000      -2.233500       -60.7766
  63   1.0000      -2.233248       -60.7698
  64   1.0000      -2.232498       -60.7494
  65   1.0000      -2.231405       -60.7196
  66   1.0000      -2.230136       -60.6851
  67   1.0000      -2.229713       -60.6736
  68   1.0000      -2.228186       -60.6320
  69   1.0000      -2.227558       -60.6149
  70   1.0000      -1.660707       -45.1901
  71   1.0000      -1.660586       -45.1868
  72   1.0000      -1.632243       -44.4156
  73   1.0000      -0.423198       -11.5158
  74   1.0000      -0.392133       -10.6705
  75   1.0000      -0.390578       -10.6282
  76   1.0000      -0.386700       -10.5227
  77   1.0000      -0.374162       -10.1815
  78   1.0000      -0.373841       -10.1727
  79   1.0000      -0.368175       -10.0186
  80   1.0000      -0.366828        -9.9819
  81   1.0000      -0.363468        -9.8905
  82   1.0000      -0.360745        -9.8164
  83   1.0000      -0.357403        -9.7254
  84   1.0000      -0.356849        -9.7103
  85   1.0000      -0.355574        -9.6757
  86   1.0000      -0.354735        -9.6528
  87   1.0000      -0.349463        -9.5094
  88   1.0000      -0.349119        -9.5000
  89   1.0000      -0.348888        -9.4937
  90   1.0000      -0.347141        -9.4462
  91   1.0000      -0.344557        -9.3759
  92   1.0000      -0.343234        -9.3399
  93   1.0000      -0.342556        -9.3214
  94   1.0000      -0.340134        -9.2555
  95   1.0000      -0.337309        -9.1786
  96   1.0000      -0.333623        -9.0783
  97   1.0000      -0.330153        -8.9839
  98   1.0000      -0.328871        -8.9490
  99   1.0000      -0.326888        -8.8951
 100   1.0000      -0.326761        -8.8916
 101   1.0000      -0.325224        -8.8498
 102   1.0000      -0.324641        -8.8339
 103   1.0000      -0.322983        -8.7888
 104   1.0000      -0.320633        -8.7249
 105   1.0000      -0.318085        -8.6555
 106   1.0000      -0.317650        -8.6437
 107   1.0000      -0.311186        -8.4678
 108   1.0000      -0.308683        -8.3997
 109   1.0000      -0.306959        -8.3528
 110   1.0000      -0.302407        -8.2289
 111   1.0000      -0.299232        -8.1425
 112   1.0000      -0.297819        -8.1041
 113   1.0000      -0.295246        -8.0341
 114   1.0000      -0.293117        -7.9761
 115   1.0000      -0.291192        -7.9237
 116   1.0000      -0.290684        -7.9099
 117   1.0000      -0.288316        -7.8455
 118   1.0000      -0.287600        -7.8260
 119   1.0000      -0.286946        -7.8082
 120   1.0000      -0.286400        -7.7933
 121   1.0000      -0.282277        -7.6811
 122   1.0000      -0.278777        -7.5859
 123   1.0000      -0.277742        -7.5578
 124   1.0000      -0.277127        -7.5410
 125   1.0000      -0.276058        -7.5119
 126   1.0000      -0.275815        -7.5053
 127   1.0000      -0.274477        -7.4689
 128   1.0000      -0.273712        -7.4481
 129   1.0000      -0.271429        -7.3860
 130   1.0000      -0.270402        -7.3580
 131   1.0000      -0.269673        -7.3382
 132   1.0000      -0.268042        -7.2938
 133   1.0000      -0.267948        -7.2912
 134   1.0000      -0.266038        -7.2393
 135   1.0000      -0.265505        -7.2248
 136   1.0000      -0.264471        -7.1966
 137   1.0000      -0.263355        -7.1663
 138   1.0000      -0.261139        -7.1059
 139   1.0000      -0.261005        -7.1023
 140   1.0000      -0.257719        -7.0129
 141   1.0000      -0.256949        -6.9919
 142   1.0000      -0.255724        -6.9586
 143   1.0000      -0.254498        -6.9252
 144   1.0000      -0.252925        -6.8824
 145   1.0000      -0.252859        -6.8807
 146   1.0000      -0.249862        -6.7991
 147   1.0000      -0.249369        -6.7857
 148   1.0000      -0.249013        -6.7760
 149   1.0000      -0.248857        -6.7717
 150   1.0000      -0.245792        -6.6883
 151   1.0000      -0.245651        -6.6845
 152   1.0000      -0.244726        -6.6593
 153   1.0000      -0.242475        -6.5981
 154   1.0000      -0.241476        -6.5709
 155   1.0000      -0.234234        -6.3738
 156   1.0000      -0.230050        -6.2600
 157   1.0000      -0.226632        -6.1670
 158   1.0000      -0.216015        -5.8781
 159   1.0000      -0.211913        -5.7664
 160   1.0000      -0.208883        -5.6840
 161   1.0000      -0.208151        -5.6641
 162   0.0000      -0.155409        -4.2289
 163   0.0000      -0.146072        -3.9748
 164   0.0000      -0.145066        -3.9475
 165   0.0000      -0.132899        -3.6164
 166   0.0000      -0.132030        -3.5927

MULLIKEN ATOMIC CHARGES AND SPIN POPULATIONS
--------------------------------------------
   0 Au:    0.417382    0.040155
   1 Au:    0.261700    0.043788
   2 Au:    0.266428    0.047390
   3 Au:    0.086741    0.076288
   4 Au:    0.497901   -0.004007
   5 Au:    0.242878    0.053089
   6 Au:    0.525579    0.028842
   7 Au:    0.495710   -0.007160
   8 Au:    0.203016   -0.020921
   9 Au:    0.203543   -0.026015
  10 Au:    0.474959    0.045500
  11 Au:    0.250268    0.057393
  12 Au:    0.526334    0.028915
  13 Au:   -0.243794    0.015316
  14 Au:   -0.244980    0.011171
  15 Au:    0.478831    0.060296
  16 Cr:   -4.442496    3.549961
Sum of atomic charges         :   -0.0000000

LOEWDIN ATOMIC CHARGES AND SPIN POPULATIONS
-------------------------------------------
   0 Au:    0.097990    0.046005
   1 Au:    0.034800    0.039417
   2 Au:    0.036049    0.041231
   3 Au:    0.021591    0.041494
   4 Au:    0.139208   -0.013521
   5 Au:    0.066351    0.024963
   6 Au:    0.144659    0.009511
   7 Au:    0.139066   -0.015309
   8 Au:    0.046030   -0.005681
   9 Au:    0.046950   -0.008329
  10 Au:    0.136752    0.025898
  11 Au:    0.067040    0.025637
  12 Au:    0.145454    0.009292
  13 Au:   -0.044695    0.021471
  14 Au:   -0.044911    0.020506
  15 Au:    0.146319    0.016944
  16 Cr:   -1.178653    3.720472

  Mayer bond orders larger than 0.100000
B(  0-Au,  1-Au) :   0.2292 B(  0-Au,  2-Au) :   0.2311 B(  0-Au, 13-Au) :   0.3322
B(  0-Au, 14-Au) :   0.3326 B(  1-Au,  2-Au) :   0.2033 B(  1-Au,  3-Au) :   0.2566
B(  1-Au, 11-Au) :   0.2341 B(  1-Au, 14-Au) :   0.3073 B(  1-Au, 16-Cr) :   0.2712
B(  2-Au,  3-Au) :   0.2626 B(  2-Au,  5-Au) :   0.2384 B(  2-Au, 13-Au) :   0.3051
B(  2-Au, 16-Cr) :   0.2663 B(  3-Au,  4-Au) :   0.2060 B(  3-Au,  5-Au) :   0.1010
B(  3-Au,  7-Au) :   0.2047 B(  3-Au, 16-Cr) :   0.4971 B(  4-Au,  5-Au) :   0.1495
B(  4-Au,  6-Au) :   0.2844 B(  4-Au,  7-Au) :   0.2742 B(  4-Au,  8-Au) :   0.1094
B(  4-Au, 16-Cr) :   0.4689 B(  5-Au,  6-Au) :   0.1882 B(  5-Au,  9-Au) :   0.1477
B(  5-Au, 13-Au) :   0.2507 B(  5-Au, 16-Cr) :   0.5656 B(  6-Au,  9-Au) :   0.2493
B(  6-Au, 10-Au) :   0.2430 B(  6-Au, 16-Cr) :   0.4020 B(  7-Au,  9-Au) :   0.1103
B(  7-Au, 11-Au) :   0.1513 B(  7-Au, 12-Au) :   0.2836 B(  7-Au, 16-Cr) :   0.4804
B(  8-Au,  9-Au) :   0.1164 B(  8-Au, 10-Au) :   0.1983 B(  8-Au, 11-Au) :   0.1440
B(  8-Au, 12-Au) :   0.2481 B(  8-Au, 14-Au) :   0.2654 B(  8-Au, 15-Au) :   0.2522
B(  8-Au, 16-Cr) :   0.5482 B(  9-Au, 10-Au) :   0.1973 B(  9-Au, 13-Au) :   0.2673
B(  9-Au, 15-Au) :   0.2472 B(  9-Au, 16-Cr) :   0.5561 B( 10-Au, 12-Au) :   0.2417
B( 10-Au, 16-Cr) :   0.4176 B( 11-Au, 12-Au) :   0.1854 B( 11-Au, 14-Au) :   0.2545
B( 11-Au, 16-Cr) :   0.5616 B( 12-Au, 16-Cr) :   0.4070 B( 13-Au, 14-Au) :   0.3293
B( 13-Au, 15-Au) :   0.2209 B( 13-Au, 16-Cr) :   0.3614 B( 14-Au, 15-Au) :   0.2243
B( 14-Au, 16-Cr) :   0.3597 B( 15-Au, 16-Cr) :   0.2826

FINAL SINGLE POINT ENERGY     -3217.516846036072

DIPOLE MOMENT
-------------
                                X             Y             Z
Electronic contribution:     27.52254       7.36473      25.26358
Nuclear contribution   :    -27.59037      -7.66396     -25.55561
                        -----------------------------------------
Total Dipole Moment    :     -0.06784      -0.29923      -0.29203
                        -----------------------------------------
Magnitude (a.u.)       :      0.42358
Magnitude (Debye)      :      1.07665

Rotational constants in cm-1:     0.000942     0.000782     0.000720
Rotational constants in MHz :    28.235713    23.457344    21.580422

                             ****ORCA TERMINATED NORMALLY****
TOTAL RUN TIME: 0 days 5 hours 10 minutes 25 seconds 644 msec
