                         Program Version 5.0.3 -  RELEASE  -
|  1> !RI-B2PLYP def2-TZVP def2-TZVP/C
|  2> !RIJCOSX VERYSLOWCONV
|  3>
|  4> %scf
|  5>   AutoTRAHIter 200
|  6>   maxiter 400
|  7> end
|  8>
|  9>
| 10> %pal nprocs 6 end
| 11>
| 12> *xyzfile 0 5 pbe.xyz
| 13>
| 14> $new_job
| 15>
| 16> !RI-B2PLYP def2-TZVP def2-TZVP/C
| 17> !RIJCOSX VERYSLOWCONV
| 18>
| 19> %scf
| 20>   AutoTRAHIter 200
| 21>   maxiter 400
| 22> end
| 23>
| 24>
| 25> %pal nprocs 6 end
| 26>
| 27> *xyzfile 0 3 pbe.xyz
| 28>
| 29>
| 30>
| 31>
| 32>
| 33>                          ****END OF INPUT****
 Total Charge           Charge          ....    0
 Multiplicity           Mult            ....    5
 Number of Electrons    NEL             ....  214
MP2 TOTAL ENERGY:    -2400.092123578 Eh
FINAL SINGLE POINT ENERGY     -2400.092123577577

CARTESIAN COORDINATES (ANGSTROEM)
---------------------------------
  Au     7.638730    4.821765    8.094755
  Au    10.323856    5.676245    8.099027
  Au     9.118204    7.780623    9.212727
  Au     7.594280    9.451161    7.761217
  Au     6.795274    5.941520    4.822461
  Au     9.229742    9.061005    5.422401
  Au    11.650139    4.402472    6.075279
  Au     8.958144    4.596186    5.616001
  Au    10.753887    6.919368    5.485708
  Au     6.410251    8.515380    5.487515
  Cr     8.271005    7.003054    6.791664

 Multiplicity           Mult            ....    3
 Number of Electrons    NEL             ....  214
 Basis Dimension        Dim             ....  445

ORBITAL ENERGIES
----------------
                 SPIN UP ORBITALS
  NO   OCC          E(Eh)            E(eV)
   0   1.0000    -217.767304     -5925.7496
   1   1.0000     -25.457343      -692.7295
   2   1.0000     -21.598614      -587.7282
   3   1.0000     -21.594123      -587.6060
   4   1.0000     -21.590942      -587.5194
   5   1.0000      -4.401566      -119.7727
   6   1.0000      -4.401523      -119.7715
   7   1.0000      -4.392982      -119.5391
   8   1.0000      -4.391458      -119.4976
   9   1.0000      -4.390669      -119.4762
  10   1.0000      -4.386181      -119.3541
  11   1.0000      -4.385930      -119.3472
  12   1.0000      -4.384943      -119.3204
  13   1.0000      -4.384719      -119.3143
  14   1.0000      -4.384458      -119.3072
  15   1.0000      -3.242442       -88.2313
  16   1.0000      -2.523330       -68.6633
  17   1.0000      -2.522735       -68.6471
  18   1.0000      -2.520972       -68.5991
  19   1.0000      -2.519040       -68.5466
  20   1.0000      -2.516830       -68.4864
  21   1.0000      -2.515783       -68.4579
  22   1.0000      -2.514561       -68.4247
  23   1.0000      -2.513159       -68.3865
  24   1.0000      -2.511066       -68.3296
  25   1.0000      -2.508837       -68.2689
  26   1.0000      -2.508528       -68.2605
  27   1.0000      -2.508149       -68.2502
  28   1.0000      -2.507909       -68.2437
  29   1.0000      -2.507576       -68.2346
  30   1.0000      -2.507450       -68.2312
  31   1.0000      -2.506500       -68.2053
  32   1.0000      -2.505322       -68.1733
  33   1.0000      -2.504991       -68.1643
  34   1.0000      -2.504764       -68.1581
  35   1.0000      -2.504545       -68.1521
  36   1.0000      -2.503759       -68.1307
  37   1.0000      -2.503030       -68.1109
  38   1.0000      -2.501529       -68.0701
  39   1.0000      -2.500881       -68.0524
  40   1.0000      -2.500220       -68.0344
  41   1.0000      -2.499314       -68.0098
  42   1.0000      -2.499075       -68.0033
  43   1.0000      -2.497795       -67.9685
  44   1.0000      -2.497252       -67.9537
  45   1.0000      -2.496456       -67.9320
  46   1.0000      -2.131070       -57.9894
  47   1.0000      -2.128337       -57.9150
  48   1.0000      -2.118633       -57.6509
  49   1.0000      -0.489938       -13.3319
  50   1.0000      -0.477582       -12.9957
  51   1.0000      -0.470351       -12.7989
  52   1.0000      -0.462741       -12.5918
  53   1.0000      -0.461639       -12.5618
  54   1.0000      -0.451385       -12.2828
  55   1.0000      -0.451210       -12.2781
  56   1.0000      -0.448019       -12.1912
  57   1.0000      -0.445531       -12.1235
  58   1.0000      -0.444499       -12.0954
  59   1.0000      -0.438011       -11.9189
  60   1.0000      -0.434702       -11.8288
  61   1.0000      -0.428458       -11.6589
  62   1.0000      -0.427647       -11.6369
  63   1.0000      -0.423112       -11.5135
  64   1.0000      -0.417224       -11.3532
  65   1.0000      -0.414652       -11.2833
  66   1.0000      -0.413689       -11.2571
  67   1.0000      -0.412679       -11.2296
  68   1.0000      -0.410341       -11.1659
  69   1.0000      -0.404090       -10.9959
  70   1.0000      -0.402152       -10.9431
  71   1.0000      -0.399177       -10.8621
  72   1.0000      -0.392553       -10.6819
  73   1.0000      -0.391614       -10.6564
  74   1.0000      -0.386346       -10.5130
  75   1.0000      -0.384814       -10.4713
  76   1.0000      -0.384440       -10.4611
  77   1.0000      -0.382122       -10.3981
  78   1.0000      -0.380488       -10.3536
  79   1.0000      -0.375688       -10.2230
  80   1.0000      -0.374570       -10.1926
  81   1.0000      -0.369915       -10.0659
  82   1.0000      -0.368856       -10.0371
  83   1.0000      -0.367588       -10.0026
  84   1.0000      -0.365914        -9.9570
  85   1.0000      -0.362966        -9.8768
  86   1.0000      -0.361656        -9.8412
  87   1.0000      -0.360545        -9.8109
  88   1.0000      -0.358567        -9.7571
  89   1.0000      -0.357667        -9.7326
  90   1.0000      -0.356341        -9.6965
  91   1.0000      -0.353598        -9.6219
  92   1.0000      -0.352275        -9.5859
  93   1.0000      -0.351158        -9.5555
  94   1.0000      -0.346478        -9.4282
  95   1.0000      -0.346188        -9.4202
  96   1.0000      -0.339996        -9.2518
  97   1.0000      -0.338775        -9.2185
  98   1.0000      -0.333316        -9.0700
  99   1.0000      -0.324407        -8.8276
 100   1.0000      -0.324166        -8.8210
 101   1.0000      -0.321990        -8.7618
 102   1.0000      -0.320580        -8.7234
 103   1.0000      -0.316881        -8.6228
 104   1.0000      -0.305717        -8.3190
 105   1.0000      -0.267768        -7.2863
 106   1.0000      -0.265742        -7.2312
 107   1.0000      -0.229680        -6.2499
 108   0.0000      -0.114433        -3.1139
 109   0.0000      -0.104847        -2.8530
 110   0.0000      -0.078378        -2.1328
 111   0.0000      -0.064433        -1.7533
 112   0.0000      -0.046014        -1.2521

                 SPIN DOWN ORBITALS
  NO   OCC          E(Eh)            E(eV)
   0   1.0000    -217.765896     -5925.7113
   1   1.0000     -25.388238      -690.8491
   2   1.0000     -21.543368      -586.2249
   3   1.0000     -21.528985      -585.8335
   4   1.0000     -21.519804      -585.5836
   5   1.0000      -4.402137      -119.7882
   6   1.0000      -4.402074      -119.7865
   7   1.0000      -4.393966      -119.5659
   8   1.0000      -4.392982      -119.5391
   9   1.0000      -4.390712      -119.4773
  10   1.0000      -4.386520      -119.3633
  11   1.0000      -4.386281      -119.3568
  12   1.0000      -4.385085      -119.3242
  13   1.0000      -4.384877      -119.3186
  14   1.0000      -4.384392      -119.3054
  15   1.0000      -3.031652       -82.4955
  16   1.0000      -2.523006       -68.6545
  17   1.0000      -2.522288       -68.6350
  18   1.0000      -2.520520       -68.5868
  19   1.0000      -2.518562       -68.5336
  20   1.0000      -2.517375       -68.5013
  21   1.0000      -2.516517       -68.4779
  22   1.0000      -2.515014       -68.4370
  23   1.0000      -2.513410       -68.3934
  24   1.0000      -2.511736       -68.3478
  25   1.0000      -2.509079       -68.2755
  26   1.0000      -2.508829       -68.2687
  27   1.0000      -2.507925       -68.2441
  28   1.0000      -2.507858       -68.2423
  29   1.0000      -2.507426       -68.2305
  30   1.0000      -2.507099       -68.2216
  31   1.0000      -2.506719       -68.2113
  32   1.0000      -2.506510       -68.2056
  33   1.0000      -2.504596       -68.1535
  34   1.0000      -2.503788       -68.1315
  35   1.0000      -2.503772       -68.1311
  36   1.0000      -2.503332       -68.1191
  37   1.0000      -2.503144       -68.1140
  38   1.0000      -2.501756       -68.0762
  39   1.0000      -2.500310       -68.0369
  40   1.0000      -2.499826       -68.0237
  41   1.0000      -2.498987       -68.0009
  42   1.0000      -2.498737       -67.9941
  43   1.0000      -2.497052       -67.9482
  44   1.0000      -2.496714       -67.9390
  45   1.0000      -2.496442       -67.9317
  46   1.0000      -1.912209       -52.0339
  47   1.0000      -1.880284       -51.1651
  48   1.0000      -1.858991       -50.5857
  49   1.0000      -0.481888       -13.1128
  50   1.0000      -0.472136       -12.8475
  51   1.0000      -0.458847       -12.4858
  52   1.0000      -0.458395       -12.4736
  53   1.0000      -0.453003       -12.3268
  54   1.0000      -0.450475       -12.2580
  55   1.0000      -0.446607       -12.1528
  56   1.0000      -0.441670       -12.0184
  57   1.0000      -0.440655       -11.9908
  58   1.0000      -0.438004       -11.9187
  59   1.0000      -0.436219       -11.8701
  60   1.0000      -0.430041       -11.7020
  61   1.0000      -0.428353       -11.6561
  62   1.0000      -0.425524       -11.5791
  63   1.0000      -0.422270       -11.4905
  64   1.0000      -0.415330       -11.3017
  65   1.0000      -0.411514       -11.1979
  66   1.0000      -0.410994       -11.1837
  67   1.0000      -0.409124       -11.1328
  68   1.0000      -0.406391       -11.0585
  69   1.0000      -0.404559       -11.0086
  70   1.0000      -0.398342       -10.8394
  71   1.0000      -0.392406       -10.6779
  72   1.0000      -0.391614       -10.6564
  73   1.0000      -0.389821       -10.6076
  74   1.0000      -0.386985       -10.5304
  75   1.0000      -0.385212       -10.4821
  76   1.0000      -0.381001       -10.3676
  77   1.0000      -0.380342       -10.3496
  78   1.0000      -0.377260       -10.2658
  79   1.0000      -0.374378       -10.1873
  80   1.0000      -0.372194       -10.1279
  81   1.0000      -0.369471       -10.0538
  82   1.0000      -0.368648       -10.0314
  83   1.0000      -0.364553        -9.9200
  84   1.0000      -0.362851        -9.8737
  85   1.0000      -0.362544        -9.8653
  86   1.0000      -0.362261        -9.8576
  87   1.0000      -0.358802        -9.7635
  88   1.0000      -0.357237        -9.7209
  89   1.0000      -0.355799        -9.6818
  90   1.0000      -0.354962        -9.6590
  91   1.0000      -0.351739        -9.5713
  92   1.0000      -0.349705        -9.5160
  93   1.0000      -0.345935        -9.4134
  94   1.0000      -0.342182        -9.3112
  95   1.0000      -0.341735        -9.2991
  96   1.0000      -0.335370        -9.1259
  97   1.0000      -0.325449        -8.8559
  98   1.0000      -0.324499        -8.8301
  99   1.0000      -0.323849        -8.8124
 100   1.0000      -0.319767        -8.7013
 101   1.0000      -0.291917        -7.9435
 102   1.0000      -0.280304        -7.6274
 103   1.0000      -0.230274        -6.2661
 104   1.0000      -0.212905        -5.7934
 105   1.0000      -0.209642        -5.7046
 106   0.0000      -0.085867        -2.3366
 107   0.0000      -0.072439        -1.9712
 108   0.0000      -0.055495        -1.5101
 109   0.0000      -0.037775        -1.0279
 110   0.0000      -0.018315        -0.4984

MULLIKEN ATOMIC CHARGES AND SPIN POPULATIONS
--------------------------------------------
   0 Au:    0.380175   -0.232242
   1 Au:    0.206104   -0.205756
   2 Au:    0.228764   -0.170887
   3 Au:    0.268181   -0.225181
   4 Au:    0.215384   -0.169469
   5 Au:    0.217018   -0.028566
   6 Au:    0.351759   -0.049885
   7 Au:    0.218508   -0.201522
   8 Au:   -0.004909    0.031995
   9 Au:    0.272844   -0.239434
  10 Cr:   -2.353827    3.490947
Sum of atomic charges         :   -0.0000000

LOEWDIN ATOMIC CHARGES AND SPIN POPULATIONS
-------------------------------------------
   0 Au:    0.163752   -0.179681
   1 Au:   -0.027728   -0.158174
   2 Au:    0.111368   -0.189769
   3 Au:    0.067889   -0.193704
   4 Au:    0.111891   -0.189616
   5 Au:    0.078382   -0.068290
   6 Au:    0.165239   -0.075579
   7 Au:   -0.028089   -0.157216
   8 Au:    0.016640   -0.015298
   9 Au:    0.067782   -0.200184
  10 Cr:   -0.727126    3.427512

  Mayer bond orders larger than 0.100000
B(  0-Au,  1-Au) :   0.1327 B(  0-Au,  7-Au) :   0.1355 B(  0-Au, 10-Cr) :   0.7479
B(  1-Au,  2-Au) :   0.3306 B(  1-Au,  6-Au) :   0.3226 B(  1-Au,  7-Au) :   0.1048
B(  1-Au,  8-Au) :   0.1942 B(  1-Au, 10-Cr) :   0.5023 B(  2-Au,  3-Au) :   0.3163
B(  2-Au, 10-Cr) :   0.5660 B(  3-Au,  9-Au) :   0.2289 B(  3-Au, 10-Cr) :   0.5415
B(  4-Au,  7-Au) :   0.3334 B(  4-Au,  9-Au) :   0.3169 B(  4-Au, 10-Cr) :   0.5687
B(  5-Au,  8-Au) :   0.5608 B(  5-Au, 10-Cr) :   0.6946 B(  6-Au,  7-Au) :   0.3143
B(  6-Au,  8-Au) :   0.3437 B(  6-Au, 10-Cr) :   0.2101 B(  7-Au,  8-Au) :   0.1834
B(  7-Au, 10-Cr) :   0.5108 B(  8-Au, 10-Cr) :   0.4476 B(  9-Au, 10-Cr) :   0.5271

MP2 TOTAL ENERGY:    -2400.093321884 Eh
FINAL SINGLE POINT ENERGY     -2400.093321883684

DIPOLE MOMENT
-------------
                                X             Y             Z
Electronic contribution:     20.30885     -10.41585      -6.34328
Nuclear contribution   :    -20.14076      10.01300       6.42954
                        -----------------------------------------
Total Dipole Moment    :      0.16809      -0.40285       0.08626
                        -----------------------------------------
Magnitude (a.u.)       :      0.44495
Magnitude (Debye)      :      1.13098

Rotational constants in cm-1:     0.002151     0.001469     0.001354
Rotational constants in MHz :    64.480668    44.026810    40.602947

                             ****ORCA TERMINATED NORMALLY****
TOTAL RUN TIME: 0 days 0 hours 33 minutes 40 seconds 507 msec
