                         Program Version 5.0.3 -  RELEASE  -
|  1> !PBE def2-TZVP VERYSLOWCONV
|  2>
|  3> %scf
|  4>   AutoTRAHIter 200
|  5>   maxiter 400
|  6> end
|  7>
|  8>
|  9> %pal nprocs 6 end
| 10>
| 11> *xyzfile 0 5 pbe.xyz
| 12>
| 13> $new_job
| 14>
| 15> !PBE def2-TZVP VERYSLOWCONV
| 16>
| 17> %scf
| 18>   AutoTRAHIter 200
| 19>   maxiter 400
| 20> end
| 21>
| 22>
| 23> %pal nprocs 6 end
| 24>
| 25> *xyzfile 0 3 pbe.xyz
| 26>
| 27>
| 28>
| 29>
| 30>
| 31>                          ****END OF INPUT****
 Total Charge           Charge          ....    0
 Multiplicity           Mult            ....    5
 Number of Electrons    NEL             ....  214
FINAL SINGLE POINT ENERGY     -2402.474181167238

CARTESIAN COORDINATES (ANGSTROEM)
---------------------------------
  Au     7.638730    4.821765    8.094755
  Au    10.323856    5.676245    8.099027
  Au     9.118204    7.780623    9.212727
  Au     7.594280    9.451161    7.761217
  Au     6.795274    5.941520    4.822461
  Au     9.229742    9.061005    5.422401
  Au    11.650139    4.402472    6.075279
  Au     8.958144    4.596186    5.616001
  Au    10.753887    6.919368    5.485708
  Au     6.410251    8.515380    5.487515
  Cr     8.271005    7.003054    6.791664

 Multiplicity           Mult            ....    3
 Number of Electrons    NEL             ....  214
 Basis Dimension        Dim             ....  445

ORBITAL ENERGIES
----------------
                 SPIN UP ORBITALS
  NO   OCC          E(Eh)            E(eV)
   0   1.0000    -214.505896     -5837.0022
   1   1.0000     -24.308952      -661.4802
   2   1.0000     -20.674736      -562.5882
   3   1.0000     -20.672049      -562.5150
   4   1.0000     -20.670689      -562.4780
   5   1.0000      -4.028775      -109.6285
   6   1.0000      -4.028727      -109.6272
   7   1.0000      -4.022809      -109.4662
   8   1.0000      -4.019636      -109.3799
   9   1.0000      -4.017700      -109.3272
  10   1.0000      -4.016578      -109.2966
  11   1.0000      -4.016193      -109.2862
  12   1.0000      -4.012433      -109.1839
  13   1.0000      -4.011625      -109.1619
  14   1.0000      -4.011166      -109.1494
  15   1.0000      -2.805958       -76.3540
  16   1.0000      -2.246604       -61.1332
  17   1.0000      -2.246060       -61.1184
  18   1.0000      -2.243351       -61.0447
  19   1.0000      -2.241874       -61.0045
  20   1.0000      -2.240686       -60.9722
  21   1.0000      -2.238256       -60.9060
  22   1.0000      -2.237047       -60.8731
  23   1.0000      -2.236519       -60.8588
  24   1.0000      -2.235302       -60.8257
  25   1.0000      -2.234228       -60.7964
  26   1.0000      -2.234051       -60.7916
  27   1.0000      -2.233374       -60.7732
  28   1.0000      -2.233007       -60.7632
  29   1.0000      -2.232929       -60.7611
  30   1.0000      -2.232061       -60.7375
  31   1.0000      -2.231623       -60.7255
  32   1.0000      -2.231258       -60.7156
  33   1.0000      -2.229772       -60.6752
  34   1.0000      -2.228613       -60.6436
  35   1.0000      -2.228193       -60.6322
  36   1.0000      -2.226287       -60.5804
  37   1.0000      -2.225605       -60.5618
  38   1.0000      -2.225153       -60.5495
  39   1.0000      -2.224614       -60.5348
  40   1.0000      -2.224397       -60.5289
  41   1.0000      -2.223423       -60.5024
  42   1.0000      -2.223206       -60.4965
  43   1.0000      -2.220968       -60.4356
  44   1.0000      -2.217570       -60.3432
  45   1.0000      -2.217041       -60.3287
  46   1.0000      -1.798467       -48.9388
  47   1.0000      -1.794664       -48.8353
  48   1.0000      -1.791828       -48.7581
  49   1.0000      -0.407022       -11.0756
  50   1.0000      -0.379145       -10.3171
  51   1.0000      -0.363624        -9.8947
  52   1.0000      -0.362714        -9.8700
  53   1.0000      -0.357180        -9.7194
  54   1.0000      -0.355777        -9.6812
  55   1.0000      -0.346129        -9.4186
  56   1.0000      -0.342664        -9.3244
  57   1.0000      -0.337255        -9.1772
  58   1.0000      -0.335498        -9.1294
  59   1.0000      -0.334745        -9.1089
  60   1.0000      -0.328376        -8.9356
  61   1.0000      -0.328082        -8.9276
  62   1.0000      -0.326529        -8.8853
  63   1.0000      -0.322396        -8.7728
  64   1.0000      -0.317988        -8.6529
  65   1.0000      -0.314646        -8.5620
  66   1.0000      -0.310609        -8.4521
  67   1.0000      -0.306391        -8.3373
  68   1.0000      -0.305530        -8.3139
  69   1.0000      -0.305190        -8.3046
  70   1.0000      -0.298938        -8.1345
  71   1.0000      -0.296971        -8.0810
  72   1.0000      -0.296454        -8.0669
  73   1.0000      -0.289689        -7.8828
  74   1.0000      -0.288372        -7.8470
  75   1.0000      -0.287033        -7.8106
  76   1.0000      -0.285006        -7.7554
  77   1.0000      -0.280119        -7.6224
  78   1.0000      -0.277950        -7.5634
  79   1.0000      -0.277123        -7.5409
  80   1.0000      -0.273630        -7.4459
  81   1.0000      -0.271991        -7.4012
  82   1.0000      -0.270148        -7.3511
  83   1.0000      -0.267609        -7.2820
  84   1.0000      -0.266917        -7.2632
  85   1.0000      -0.264317        -7.1924
  86   1.0000      -0.263168        -7.1612
  87   1.0000      -0.262466        -7.1421
  88   1.0000      -0.260604        -7.0914
  89   1.0000      -0.258795        -7.0422
  90   1.0000      -0.256627        -6.9832
  91   1.0000      -0.255172        -6.9436
  92   1.0000      -0.254183        -6.9167
  93   1.0000      -0.251956        -6.8561
  94   1.0000      -0.249484        -6.7888
  95   1.0000      -0.246264        -6.7012
  96   1.0000      -0.243660        -6.6303
  97   1.0000      -0.242804        -6.6070
  98   1.0000      -0.237728        -6.4689
  99   1.0000      -0.234899        -6.3919
 100   1.0000      -0.233151        -6.3444
 101   1.0000      -0.231838        -6.3086
 102   1.0000      -0.228473        -6.2171
 103   1.0000      -0.216888        -5.9018
 104   1.0000      -0.211049        -5.7429
 105   1.0000      -0.209972        -5.7136
 106   1.0000      -0.208872        -5.6837
 107   1.0000      -0.203034        -5.5248
 108   0.0000      -0.185768        -5.0550
 109   0.0000      -0.165303        -4.4981
 110   0.0000      -0.158190        -4.3046
 111   0.0000      -0.139029        -3.7832
 112   0.0000      -0.126569        -3.4441

                 SPIN DOWN ORBITALS
  NO   OCC          E(Eh)            E(eV)
   0   1.0000    -214.505474     -5836.9907
   1   1.0000     -24.265651      -660.3019
   2   1.0000     -20.644295      -561.7598
   3   1.0000     -20.637218      -561.5673
   4   1.0000     -20.636681      -561.5526
   5   1.0000      -4.029119      -109.6379
   6   1.0000      -4.029079      -109.6368
   7   1.0000      -4.023440      -109.4834
   8   1.0000      -4.019190      -109.3677
   9   1.0000      -4.017808      -109.3301
  10   1.0000      -4.016621      -109.2978
  11   1.0000      -4.016257      -109.2879
  12   1.0000      -4.012327      -109.1810
  13   1.0000      -4.011381      -109.1552
  14   1.0000      -4.010925      -109.1428
  15   1.0000      -2.689472       -73.1842
  16   1.0000      -2.247133       -61.1476
  17   1.0000      -2.246536       -61.1314
  18   1.0000      -2.243635       -61.0524
  19   1.0000      -2.242205       -61.0135
  20   1.0000      -2.240814       -60.9756
  21   1.0000      -2.238586       -60.9150
  22   1.0000      -2.237285       -60.8796
  23   1.0000      -2.236794       -60.8663
  24   1.0000      -2.235140       -60.8213
  25   1.0000      -2.234748       -60.8106
  26   1.0000      -2.234444       -60.8023
  27   1.0000      -2.233523       -60.7772
  28   1.0000      -2.232907       -60.7605
  29   1.0000      -2.232343       -60.7451
  30   1.0000      -2.231863       -60.7321
  31   1.0000      -2.231749       -60.7290
  32   1.0000      -2.230959       -60.7075
  33   1.0000      -2.229986       -60.6810
  34   1.0000      -2.228180       -60.6319
  35   1.0000      -2.227759       -60.6204
  36   1.0000      -2.226276       -60.5801
  37   1.0000      -2.225766       -60.5662
  38   1.0000      -2.225310       -60.5538
  39   1.0000      -2.224498       -60.5317
  40   1.0000      -2.224352       -60.5277
  41   1.0000      -2.223402       -60.5018
  42   1.0000      -2.223360       -60.5007
  43   1.0000      -2.221130       -60.4400
  44   1.0000      -2.217113       -60.3307
  45   1.0000      -2.216583       -60.3163
  46   1.0000      -1.692184       -46.0467
  47   1.0000      -1.675682       -45.5976
  48   1.0000      -1.672900       -45.5219
  49   1.0000      -0.403734       -10.9862
  50   1.0000      -0.375909       -10.2290
  51   1.0000      -0.364031        -9.9058
  52   1.0000      -0.362345        -9.8599
  53   1.0000      -0.357876        -9.7383
  54   1.0000      -0.353249        -9.6124
  55   1.0000      -0.343641        -9.3510
  56   1.0000      -0.339043        -9.2258
  57   1.0000      -0.338999        -9.2246
  58   1.0000      -0.334854        -9.1119
  59   1.0000      -0.334009        -9.0888
  60   1.0000      -0.327959        -8.9242
  61   1.0000      -0.327787        -8.9195
  62   1.0000      -0.323554        -8.8043
  63   1.0000      -0.321218        -8.7408
  64   1.0000      -0.315036        -8.5726
  65   1.0000      -0.313805        -8.5391
  66   1.0000      -0.310675        -8.4539
  67   1.0000      -0.306814        -8.3488
  68   1.0000      -0.305127        -8.3029
  69   1.0000      -0.303982        -8.2718
  70   1.0000      -0.297912        -8.1066
  71   1.0000      -0.297033        -8.0827
  72   1.0000      -0.294154        -8.0043
  73   1.0000      -0.289035        -7.8650
  74   1.0000      -0.287832        -7.8323
  75   1.0000      -0.287412        -7.8209
  76   1.0000      -0.285997        -7.7824
  77   1.0000      -0.281048        -7.6477
  78   1.0000      -0.277782        -7.5588
  79   1.0000      -0.277315        -7.5461
  80   1.0000      -0.273788        -7.4501
  81   1.0000      -0.273069        -7.4306
  82   1.0000      -0.271614        -7.3910
  83   1.0000      -0.268712        -7.3120
  84   1.0000      -0.267924        -7.2906
  85   1.0000      -0.264675        -7.2022
  86   1.0000      -0.263929        -7.1819
  87   1.0000      -0.263474        -7.1695
  88   1.0000      -0.261504        -7.1159
  89   1.0000      -0.259735        -7.0677
  90   1.0000      -0.257755        -7.0139
  91   1.0000      -0.255985        -6.9657
  92   1.0000      -0.253725        -6.9042
  93   1.0000      -0.253058        -6.8861
  94   1.0000      -0.250301        -6.8110
  95   1.0000      -0.247692        -6.7400
  96   1.0000      -0.244716        -6.6590
  97   1.0000      -0.243889        -6.6366
  98   1.0000      -0.238121        -6.4796
  99   1.0000      -0.236406        -6.4329
 100   1.0000      -0.234671        -6.3857
 101   1.0000      -0.231872        -6.3095
 102   1.0000      -0.231025        -6.2865
 103   1.0000      -0.208568        -5.6754
 104   1.0000      -0.191733        -5.2173
 105   1.0000      -0.190485        -5.1834
 106   0.0000      -0.149427        -4.0661
 107   0.0000      -0.142557        -3.8792
 108   0.0000      -0.124639        -3.3916
 109   0.0000      -0.113738        -3.0950
 110   0.0000      -0.113400        -3.0858

MULLIKEN ATOMIC CHARGES AND SPIN POPULATIONS
--------------------------------------------
   0 Au:    0.400953   -0.066984
   1 Au:    0.243298   -0.130639
   2 Au:    0.239234   -0.084918
   3 Au:    0.326223   -0.166890
   4 Au:    0.226583   -0.084606
   5 Au:    0.248323   -0.063059
   6 Au:    0.398565   -0.118460
   7 Au:    0.256040   -0.130800
   8 Au:    0.030314   -0.029250
   9 Au:    0.327583   -0.172728
  10 Cr:   -2.697116    3.048335
Sum of atomic charges         :   -0.0000000

LOEWDIN ATOMIC CHARGES AND SPIN POPULATIONS
-------------------------------------------
   0 Au:    0.177272   -0.067970
   1 Au:   -0.003570   -0.109388
   2 Au:    0.129567   -0.098406
   3 Au:    0.091691   -0.141601
   4 Au:    0.130498   -0.098652
   5 Au:    0.120716   -0.082411
   6 Au:    0.152432   -0.115781
   7 Au:   -0.003461   -0.109837
   8 Au:    0.051101   -0.028574
   9 Au:    0.090163   -0.144999
  10 Cr:   -0.936409    2.997621

  Mayer bond orders larger than 0.100000
B(  0-Au,  1-Au) :   0.1755 B(  0-Au,  7-Au) :   0.1798 B(  0-Au, 10-Cr) :   0.8903
B(  1-Au,  2-Au) :   0.3710 B(  1-Au,  6-Au) :   0.3587 B(  1-Au,  7-Au) :   0.1107
B(  1-Au,  8-Au) :   0.2082 B(  1-Au, 10-Cr) :   0.5989 B(  2-Au,  3-Au) :   0.3416
B(  2-Au, 10-Cr) :   0.7036 B(  3-Au,  5-Au) :   0.1203 B(  3-Au,  9-Au) :   0.2510
B(  3-Au, 10-Cr) :   0.6587 B(  4-Au,  7-Au) :   0.3703 B(  4-Au,  9-Au) :   0.3438
B(  4-Au, 10-Cr) :   0.7044 B(  5-Au,  8-Au) :   0.5190 B(  5-Au,  9-Au) :   0.1199
B(  5-Au, 10-Cr) :   0.8090 B(  6-Au,  7-Au) :   0.3521 B(  6-Au,  8-Au) :   0.3615
B(  6-Au, 10-Cr) :   0.1940 B(  7-Au,  8-Au) :   0.1957 B(  7-Au, 10-Cr) :   0.6054
B(  8-Au, 10-Cr) :   0.4818 B(  9-Au, 10-Cr) :   0.6496

FINAL SINGLE POINT ENERGY     -2402.480795907018

DIPOLE MOMENT
-------------
                                X             Y             Z
Electronic contribution:     20.38298     -10.25157      -6.45295
Nuclear contribution   :    -20.14076      10.01300       6.42954
                        -----------------------------------------
Total Dipole Moment    :      0.24222      -0.23856      -0.02341
                        -----------------------------------------
Magnitude (a.u.)       :      0.34078
Magnitude (Debye)      :      0.86620

Rotational constants in cm-1:     0.002151     0.001469     0.001354
Rotational constants in MHz :    64.480668    44.026810    40.602947

                             ****ORCA TERMINATED NORMALLY****
TOTAL RUN TIME: 0 days 1 hours 0 minutes 7 seconds 865 msec
