                         Program Version 5.0.3 -  RELEASE  -
|  1> !R2SCAN def2-TZVP VERYSLOWCONV
|  2> !KDIIS
|  3> %scf
|  4>   AutoTRAHIter 200
|  5>   maxiter 400
|  6> end
|  7>
|  8> %pal nprocs 6 end
|  9>
| 10> *xyzfile 0 5 pbe.xyz
| 11>
| 12> $new_job
| 13>
| 14> !R2SCAN def2-TZVP VERYSLOWCONV
| 15> !KDIIS
| 16> %scf
| 17>   AutoTRAHIter 200
| 18>   maxiter 400
| 19> end
| 20>
| 21>
| 22> %pal nprocs 6 end
| 23>
| 24> *xyzfile 0 3 pbe.xyz
| 25>
| 26>
| 27>
| 28>
| 29>
| 30>                          ****END OF INPUT****
 Total Charge           Charge          ....    0
 Multiplicity           Mult            ....    5
 Number of Electrons    NEL             ....  214
FINAL SINGLE POINT ENERGY     -2402.864588810482

CARTESIAN COORDINATES (ANGSTROEM)
---------------------------------
  Au     7.638730    4.821765    8.094755
  Au    10.323856    5.676245    8.099027
  Au     9.118204    7.780623    9.212727
  Au     7.594280    9.451161    7.761217
  Au     6.795274    5.941520    4.822461
  Au     9.229742    9.061005    5.422401
  Au    11.650139    4.402472    6.075279
  Au     8.958144    4.596186    5.616001
  Au    10.753887    6.919368    5.485708
  Au     6.410251    8.515380    5.487515
  Cr     8.271005    7.003054    6.791664

 Multiplicity           Mult            ....    3
 Number of Electrons    NEL             ....  214
 Basis Dimension        Dim             ....  445

ORBITAL ENERGIES
----------------
                 SPIN UP ORBITALS
  NO   OCC          E(Eh)            E(eV)
   0   1.0000    -215.300684     -5858.6294
   1   1.0000     -24.604005      -669.5090
   2   1.0000     -20.871653      -567.9466
   3   1.0000     -20.870723      -567.9212
   4   1.0000     -20.868539      -567.8618
   5   1.0000      -4.118677      -112.0749
   6   1.0000      -4.118621      -112.0734
   7   1.0000      -4.114299      -111.9558
   8   1.0000      -4.110374      -111.8490
   9   1.0000      -4.108700      -111.8034
  10   1.0000      -4.106853      -111.7532
  11   1.0000      -4.106448      -111.7421
  12   1.0000      -4.102116      -111.6243
  13   1.0000      -4.101803      -111.6157
  14   1.0000      -4.101361      -111.6037
  15   1.0000      -2.918987       -79.4297
  16   1.0000      -2.309478       -62.8441
  17   1.0000      -2.308717       -62.8234
  18   1.0000      -2.306296       -62.7575
  19   1.0000      -2.304508       -62.7088
  20   1.0000      -2.304237       -62.7015
  21   1.0000      -2.302013       -62.6410
  22   1.0000      -2.300263       -62.5933
  23   1.0000      -2.299712       -62.5783
  24   1.0000      -2.298658       -62.5497
  25   1.0000      -2.298200       -62.5372
  26   1.0000      -2.297940       -62.5301
  27   1.0000      -2.296992       -62.5043
  28   1.0000      -2.296463       -62.4899
  29   1.0000      -2.295924       -62.4753
  30   1.0000      -2.295348       -62.4596
  31   1.0000      -2.294700       -62.4420
  32   1.0000      -2.293794       -62.4173
  33   1.0000      -2.292829       -62.3910
  34   1.0000      -2.291291       -62.3492
  35   1.0000      -2.290872       -62.3378
  36   1.0000      -2.290159       -62.3184
  37   1.0000      -2.288556       -62.2748
  38   1.0000      -2.288340       -62.2689
  39   1.0000      -2.288097       -62.2623
  40   1.0000      -2.287873       -62.2562
  41   1.0000      -2.287087       -62.2348
  42   1.0000      -2.285726       -62.1978
  43   1.0000      -2.283712       -62.1430
  44   1.0000      -2.281008       -62.0694
  45   1.0000      -2.280494       -62.0554
  46   1.0000      -1.867605       -50.8201
  47   1.0000      -1.864620       -50.7389
  48   1.0000      -1.863374       -50.7050
  49   1.0000      -0.411540       -11.1986
  50   1.0000      -0.386225       -10.5097
  51   1.0000      -0.370527       -10.0826
  52   1.0000      -0.370117       -10.0714
  53   1.0000      -0.365041        -9.9333
  54   1.0000      -0.364249        -9.9117
  55   1.0000      -0.354481        -9.6459
  56   1.0000      -0.350851        -9.5471
  57   1.0000      -0.345782        -9.4092
  58   1.0000      -0.344184        -9.3657
  59   1.0000      -0.343444        -9.3456
  60   1.0000      -0.336801        -9.1648
  61   1.0000      -0.336518        -9.1571
  62   1.0000      -0.335177        -9.1206
  63   1.0000      -0.331030        -9.0078
  64   1.0000      -0.325867        -8.8673
  65   1.0000      -0.322552        -8.7771
  66   1.0000      -0.319210        -8.6861
  67   1.0000      -0.315389        -8.5822
  68   1.0000      -0.314370        -8.5544
  69   1.0000      -0.313413        -8.5284
  70   1.0000      -0.306501        -8.3403
  71   1.0000      -0.305447        -8.3116
  72   1.0000      -0.303843        -8.2680
  73   1.0000      -0.297783        -8.1031
  74   1.0000      -0.297204        -8.0873
  75   1.0000      -0.295375        -8.0376
  76   1.0000      -0.293507        -7.9867
  77   1.0000      -0.288137        -7.8406
  78   1.0000      -0.285930        -7.7806
  79   1.0000      -0.285079        -7.7574
  80   1.0000      -0.281498        -7.6599
  81   1.0000      -0.280051        -7.6206
  82   1.0000      -0.277368        -7.5476
  83   1.0000      -0.275050        -7.4845
  84   1.0000      -0.274068        -7.4578
  85   1.0000      -0.271669        -7.3925
  86   1.0000      -0.271108        -7.3772
  87   1.0000      -0.270222        -7.3531
  88   1.0000      -0.267911        -7.2902
  89   1.0000      -0.266383        -7.2486
  90   1.0000      -0.264185        -7.1888
  91   1.0000      -0.263081        -7.1588
  92   1.0000      -0.262013        -7.1297
  93   1.0000      -0.259079        -7.0499
  94   1.0000      -0.256954        -6.9921
  95   1.0000      -0.253387        -6.8950
  96   1.0000      -0.249777        -6.7968
  97   1.0000      -0.249493        -6.7891
  98   1.0000      -0.244518        -6.6537
  99   1.0000      -0.241843        -6.5809
 100   1.0000      -0.239285        -6.5113
 101   1.0000      -0.236516        -6.4359
 102   1.0000      -0.231895        -6.3102
 103   1.0000      -0.223747        -6.0885
 104   1.0000      -0.223712        -6.0875
 105   1.0000      -0.216171        -5.8823
 106   1.0000      -0.214575        -5.8389
 107   1.0000      -0.206718        -5.6251
 108   0.0000      -0.183713        -4.9991
 109   0.0000      -0.162602        -4.4246
 110   0.0000      -0.154567        -4.2060
 111   0.0000      -0.134352        -3.6559
 112   0.0000      -0.119158        -3.2424

                 SPIN DOWN ORBITALS
  NO   OCC          E(Eh)            E(eV)
   0   1.0000    -215.300069     -5858.6127
   1   1.0000     -24.544266      -667.8834
   2   1.0000     -20.828511      -566.7726
   3   1.0000     -20.822753      -566.6159
   4   1.0000     -20.821608      -566.5848
   5   1.0000      -4.119220      -112.0897
   6   1.0000      -4.119175      -112.0885
   7   1.0000      -4.115206      -111.9805
   8   1.0000      -4.110093      -111.8413
   9   1.0000      -4.109090      -111.8140
  10   1.0000      -4.107191      -111.7624
  11   1.0000      -4.106806      -111.7519
  12   1.0000      -4.102371      -111.6312
  13   1.0000      -4.101749      -111.6143
  14   1.0000      -4.101314      -111.6024
  15   1.0000      -2.762885       -75.1819
  16   1.0000      -2.310075       -62.8603
  17   1.0000      -2.309223       -62.8372
  18   1.0000      -2.306761       -62.7702
  19   1.0000      -2.304955       -62.7210
  20   1.0000      -2.304581       -62.7108
  21   1.0000      -2.302501       -62.6542
  22   1.0000      -2.300553       -62.6012
  23   1.0000      -2.300037       -62.5872
  24   1.0000      -2.299047       -62.5603
  25   1.0000      -2.298967       -62.5581
  26   1.0000      -2.298598       -62.5480
  27   1.0000      -2.297151       -62.5086
  28   1.0000      -2.296113       -62.4804
  29   1.0000      -2.295595       -62.4663
  30   1.0000      -2.295388       -62.4607
  31   1.0000      -2.295166       -62.4547
  32   1.0000      -2.293406       -62.4067
  33   1.0000      -2.292951       -62.3944
  34   1.0000      -2.290981       -62.3408
  35   1.0000      -2.290571       -62.3296
  36   1.0000      -2.290220       -62.3200
  37   1.0000      -2.288561       -62.2749
  38   1.0000      -2.288352       -62.2692
  39   1.0000      -2.288011       -62.2599
  40   1.0000      -2.287894       -62.2568
  41   1.0000      -2.287040       -62.2335
  42   1.0000      -2.286080       -62.2074
  43   1.0000      -2.284078       -62.1529
  44   1.0000      -2.280568       -62.0574
  45   1.0000      -2.280053       -62.0434
  46   1.0000      -1.719561       -46.7916
  47   1.0000      -1.704871       -46.3919
  48   1.0000      -1.703453       -46.3533
  49   1.0000      -0.408693       -11.1211
  50   1.0000      -0.382980       -10.4214
  51   1.0000      -0.371702       -10.1145
  52   1.0000      -0.370218       -10.0741
  53   1.0000      -0.366470        -9.9721
  54   1.0000      -0.361811        -9.8454
  55   1.0000      -0.352068        -9.5803
  56   1.0000      -0.348185        -9.4746
  57   1.0000      -0.346985        -9.4419
  58   1.0000      -0.343977        -9.3601
  59   1.0000      -0.343010        -9.3338
  60   1.0000      -0.336848        -9.1661
  61   1.0000      -0.336545        -9.1579
  62   1.0000      -0.332324        -9.0430
  63   1.0000      -0.330449        -8.9920
  64   1.0000      -0.323669        -8.8075
  65   1.0000      -0.322287        -8.7699
  66   1.0000      -0.319636        -8.6977
  67   1.0000      -0.315755        -8.5921
  68   1.0000      -0.314086        -8.5467
  69   1.0000      -0.313077        -8.5193
  70   1.0000      -0.306222        -8.3327
  71   1.0000      -0.305862        -8.3229
  72   1.0000      -0.302070        -8.2198
  73   1.0000      -0.298207        -8.1146
  74   1.0000      -0.296337        -8.0638
  75   1.0000      -0.295868        -8.0510
  76   1.0000      -0.295137        -8.0311
  77   1.0000      -0.289403        -7.8750
  78   1.0000      -0.285964        -7.7815
  79   1.0000      -0.285619        -7.7721
  80   1.0000      -0.281736        -7.6664
  81   1.0000      -0.281657        -7.6643
  82   1.0000      -0.279775        -7.6131
  83   1.0000      -0.276929        -7.5356
  84   1.0000      -0.276151        -7.5144
  85   1.0000      -0.272428        -7.4131
  86   1.0000      -0.272115        -7.4046
  87   1.0000      -0.271817        -7.3965
  88   1.0000      -0.269524        -7.3341
  89   1.0000      -0.268045        -7.2939
  90   1.0000      -0.265916        -7.2360
  91   1.0000      -0.264451        -7.1961
  92   1.0000      -0.261335        -7.1113
  93   1.0000      -0.260926        -7.1002
  94   1.0000      -0.258048        -7.0218
  95   1.0000      -0.255444        -6.9510
  96   1.0000      -0.251543        -6.8448
  97   1.0000      -0.251209        -6.8357
  98   1.0000      -0.245022        -6.6674
  99   1.0000      -0.243657        -6.6303
 100   1.0000      -0.241588        -6.5739
 101   1.0000      -0.236996        -6.4490
 102   1.0000      -0.236486        -6.4351
 103   1.0000      -0.211191        -5.7468
 104   1.0000      -0.192300        -5.2328
 105   1.0000      -0.191421        -5.2088
 106   0.0000      -0.144983        -3.9452
 107   0.0000      -0.135697        -3.6925
 108   0.0000      -0.116134        -3.1602
 109   0.0000      -0.093741        -2.5508
 110   0.0000      -0.091030        -2.4770

MULLIKEN ATOMIC CHARGES AND SPIN POPULATIONS
--------------------------------------------
   0 Au:    0.359412   -0.117035
   1 Au:    0.214849   -0.161964
   2 Au:    0.219868   -0.115803
   3 Au:    0.290887   -0.223912
   4 Au:    0.208616   -0.115381
   5 Au:    0.225757   -0.086351
   6 Au:    0.368364   -0.145392
   7 Au:    0.225602   -0.161961
   8 Au:    0.025751   -0.022722
   9 Au:    0.291622   -0.231194
  10 Cr:   -2.430729    3.381715
Sum of atomic charges         :   -0.0000000

LOEWDIN ATOMIC CHARGES AND SPIN POPULATIONS
-------------------------------------------
   0 Au:    0.167611   -0.097702
   1 Au:   -0.007348   -0.128779
   2 Au:    0.122969   -0.126186
   3 Au:    0.087038   -0.175390
   4 Au:    0.123913   -0.126413
   5 Au:    0.118025   -0.101652
   6 Au:    0.153637   -0.132562
   7 Au:   -0.007347   -0.129342
   8 Au:    0.046554   -0.038284
   9 Au:    0.085596   -0.178914
  10 Cr:   -0.890647    3.235226

  Mayer bond orders larger than 0.100000
B(  0-Au,  1-Au) :   0.1662 B(  0-Au,  7-Au) :   0.1708 B(  0-Au, 10-Cr) :   0.8825
B(  1-Au,  2-Au) :   0.3746 B(  1-Au,  6-Au) :   0.3478 B(  1-Au,  8-Au) :   0.1903
B(  1-Au, 10-Cr) :   0.5744 B(  2-Au,  3-Au) :   0.3329 B(  2-Au, 10-Cr) :   0.6661
B(  3-Au,  5-Au) :   0.1058 B(  3-Au,  9-Au) :   0.2355 B(  3-Au, 10-Cr) :   0.6338
B(  4-Au,  7-Au) :   0.3742 B(  4-Au,  9-Au) :   0.3351 B(  4-Au, 10-Cr) :   0.6669
B(  5-Au,  8-Au) :   0.5297 B(  5-Au,  9-Au) :   0.1050 B(  5-Au, 10-Cr) :   0.7880
B(  6-Au,  7-Au) :   0.3405 B(  6-Au,  8-Au) :   0.3567 B(  6-Au, 10-Cr) :   0.1803
B(  7-Au,  8-Au) :   0.1787 B(  7-Au, 10-Cr) :   0.5834 B(  8-Au, 10-Cr) :   0.4477
B(  9-Au, 10-Cr) :   0.6238

FINAL SINGLE POINT ENERGY     -2402.869019763805

DIPOLE MOMENT
-------------
                                X             Y             Z
Electronic contribution:     20.39964     -10.24569      -6.46484
Nuclear contribution   :    -20.14076      10.01300       6.42954
                        -----------------------------------------
Total Dipole Moment    :      0.25888      -0.23269      -0.03530
                        -----------------------------------------
Magnitude (a.u.)       :      0.34987
Magnitude (Debye)      :      0.88931

Rotational constants in cm-1:     0.002151     0.001469     0.001354
Rotational constants in MHz :    64.480668    44.026810    40.602947

                             ****ORCA TERMINATED NORMALLY****
TOTAL RUN TIME: 0 days 0 hours 4 minutes 40 seconds 470 msec
