                         Program Version 5.0.3 -  RELEASE  -
|  1> %pal nprocs 1 end
|  2>
|  3> !PBE def2-TZVP OPT UNO
|  4> !SLOWCONV KDIIS
|  5>
|  6> %geom maxiter 300 end
|  7>
|  8> *xyzfile 0 5 1.xyz                           ****END OF INPUT****
 Total Charge           Charge          ....    0
 Multiplicity           Mult            ....    5
 Number of Electrons    NEL             ....  216
FINAL SINGLE POINT ENERGY     -2621.728653253886
FINAL SINGLE POINT ENERGY     -2621.729303945334
FINAL SINGLE POINT ENERGY     -2621.729783497053
FINAL SINGLE POINT ENERGY     -2621.730075637531
FINAL SINGLE POINT ENERGY     -2621.730275032315
FINAL SINGLE POINT ENERGY     -2621.730433170612
FINAL SINGLE POINT ENERGY     -2621.730497934433
FINAL SINGLE POINT ENERGY     -2621.730532542884
FINAL SINGLE POINT ENERGY     -2621.730549110170
FINAL SINGLE POINT ENERGY     -2621.730561490400
FINAL SINGLE POINT ENERGY     -2621.730569612952
FINAL SINGLE POINT ENERGY     -2621.730572948022
FINAL SINGLE POINT ENERGY     -2621.730575423068
                    ***********************HURRAY********************

CARTESIAN COORDINATES (ANGSTROEM)
---------------------------------
  Au     7.448548    5.574150    8.595407
  Au     9.826853    5.712805    9.811632
  Au    12.516847    6.067207   10.191755
  Au    11.319125    7.851372    8.484877
  Au    11.802269    4.819412    7.852981
  Au     7.650861    4.673505    5.908175
  Au    10.401541    4.308573    5.667404
  Au     9.126365    6.676665    4.652745
  Au     9.699912    8.721900    6.581487
  Au     7.205384    7.478852    6.498726
  Fe     9.579195    6.209157    7.240683

 Multiplicity           Mult            ....    5
 Number of Electrons    NEL             ....  216
 Basis Dimension        Dim             ....  445

ORBITAL ENERGIES
----------------
                 SPIN UP ORBITALS
  NO   OCC          E(Eh)            E(eV)
   0   1.0000    -254.769805     -6932.6388
   1   1.0000     -29.613127      -805.8141
   2   1.0000     -25.550289      -695.2587
   3   1.0000     -25.549583      -695.2395
   4   1.0000     -25.543767      -695.0812
   5   1.0000      -4.030167      -109.6664
   6   1.0000      -4.025933      -109.5512
   7   1.0000      -4.024583      -109.5145
   8   1.0000      -4.023981      -109.4981
   9   1.0000      -4.023943      -109.4971
  10   1.0000      -4.020612      -109.4064
  11   1.0000      -4.020169      -109.3944
  12   1.0000      -4.019516      -109.3766
  13   1.0000      -4.017482      -109.3212
  14   1.0000      -4.017057      -109.3097
  15   1.0000      -3.391975       -92.3003
  16   1.0000      -2.248806       -61.1931
  17   1.0000      -2.245460       -61.1021
  18   1.0000      -2.243067       -61.0370
  19   1.0000      -2.242326       -61.0168
  20   1.0000      -2.242215       -61.0138
  21   1.0000      -2.241406       -60.9918
  22   1.0000      -2.240154       -60.9577
  23   1.0000      -2.239628       -60.9434
  24   1.0000      -2.239242       -60.9329
  25   1.0000      -2.237511       -60.8858
  26   1.0000      -2.237177       -60.8767
  27   1.0000      -2.236769       -60.8656
  28   1.0000      -2.235695       -60.8363
  29   1.0000      -2.235578       -60.8332
  30   1.0000      -2.235272       -60.8248
  31   1.0000      -2.234166       -60.7947
  32   1.0000      -2.233874       -60.7868
  33   1.0000      -2.233695       -60.7819
  34   1.0000      -2.232577       -60.7515
  35   1.0000      -2.232220       -60.7418
  36   1.0000      -2.231711       -60.7280
  37   1.0000      -2.231126       -60.7120
  38   1.0000      -2.230930       -60.7067
  39   1.0000      -2.230136       -60.6851
  40   1.0000      -2.229978       -60.6808
  41   1.0000      -2.229730       -60.6740
  42   1.0000      -2.227476       -60.6127
  43   1.0000      -2.226803       -60.5944
  44   1.0000      -2.226613       -60.5892
  45   1.0000      -2.226279       -60.5801
  46   1.0000      -2.209557       -60.1251
  47   1.0000      -2.208618       -60.0996
  48   1.0000      -2.196951       -59.7821
  49   1.0000      -0.418016       -11.3748
  50   1.0000      -0.385263       -10.4835
  51   1.0000      -0.372401       -10.1335
  52   1.0000      -0.369551       -10.0560
  53   1.0000      -0.367090        -9.9890
  54   1.0000      -0.364176        -9.9097
  55   1.0000      -0.363922        -9.9028
  56   1.0000      -0.359473        -9.7818
  57   1.0000      -0.347457        -9.4548
  58   1.0000      -0.345344        -9.3973
  59   1.0000      -0.338879        -9.2214
  60   1.0000      -0.336041        -9.1441
  61   1.0000      -0.332480        -9.0472
  62   1.0000      -0.329166        -8.9571
  63   1.0000      -0.326337        -8.8801
  64   1.0000      -0.324267        -8.8238
  65   1.0000      -0.324264        -8.8237
  66   1.0000      -0.322335        -8.7712
  67   1.0000      -0.321037        -8.7359
  68   1.0000      -0.318653        -8.6710
  69   1.0000      -0.317008        -8.6262
  70   1.0000      -0.315062        -8.5733
  71   1.0000      -0.307324        -8.3627
  72   1.0000      -0.301167        -8.1952
  73   1.0000      -0.299475        -8.1491
  74   1.0000      -0.297150        -8.0859
  75   1.0000      -0.291494        -7.9319
  76   1.0000      -0.288955        -7.8629
  77   1.0000      -0.288092        -7.8394
  78   1.0000      -0.285626        -7.7723
  79   1.0000      -0.282825        -7.6961
  80   1.0000      -0.279503        -7.6057
  81   1.0000      -0.279314        -7.6005
  82   1.0000      -0.278441        -7.5768
  83   1.0000      -0.276158        -7.5146
  84   1.0000      -0.275086        -7.4855
  85   1.0000      -0.270909        -7.3718
  86   1.0000      -0.268142        -7.2965
  87   1.0000      -0.266192        -7.2435
  88   1.0000      -0.266100        -7.2409
  89   1.0000      -0.264504        -7.1975
  90   1.0000      -0.262524        -7.1437
  91   1.0000      -0.261790        -7.1237
  92   1.0000      -0.260635        -7.0922
  93   1.0000      -0.258846        -7.0435
  94   1.0000      -0.256611        -6.9827
  95   1.0000      -0.256264        -6.9733
  96   1.0000      -0.255215        -6.9447
  97   1.0000      -0.251838        -6.8528
  98   1.0000      -0.249498        -6.7892
  99   1.0000      -0.248748        -6.7688
 100   1.0000      -0.248215        -6.7543
 101   1.0000      -0.246869        -6.7177
 102   1.0000      -0.246462        -6.7066
 103   1.0000      -0.237935        -6.4745
 104   1.0000      -0.237735        -6.4691
 105   1.0000      -0.235245        -6.4013
 106   1.0000      -0.233343        -6.3496
 107   1.0000      -0.229116        -6.2346
 108   1.0000      -0.205898        -5.6028
 109   1.0000      -0.178957        -4.8697
 110   0.0000      -0.173959        -4.7337
 111   0.0000      -0.133808        -3.6411
 112   0.0000      -0.133371        -3.6292
 113   0.0000      -0.132528        -3.6063
 114   0.0000      -0.110757        -3.0139

                 SPIN DOWN ORBITALS
  NO   OCC          E(Eh)            E(eV)
   0   1.0000    -254.769045     -6932.6182
   1   1.0000     -29.551708      -804.1429
   2   1.0000     -25.503358      -693.9816
   3   1.0000     -25.501979      -693.9441
   4   1.0000     -25.499099      -693.8658
   5   1.0000      -4.029025      -109.6353
   6   1.0000      -4.024565      -109.5140
   7   1.0000      -4.024179      -109.5035
   8   1.0000      -4.022650      -109.4619
   9   1.0000      -4.022615      -109.4609
  10   1.0000      -4.019295      -109.3706
  11   1.0000      -4.019104      -109.3654
  12   1.0000      -4.018778      -109.3565
  13   1.0000      -4.017112      -109.3112
  14   1.0000      -4.016686      -109.2996
  15   1.0000      -3.253444       -88.5307
  16   1.0000      -2.247442       -61.1560
  17   1.0000      -2.243996       -61.0622
  18   1.0000      -2.240763       -60.9743
  19   1.0000      -2.240738       -60.9736
  20   1.0000      -2.240227       -60.9597
  21   1.0000      -2.239980       -60.9530
  22   1.0000      -2.238983       -60.9258
  23   1.0000      -2.238338       -60.9083
  24   1.0000      -2.237909       -60.8966
  25   1.0000      -2.236635       -60.8619
  26   1.0000      -2.236103       -60.8474
  27   1.0000      -2.236078       -60.8468
  28   1.0000      -2.235343       -60.8268
  29   1.0000      -2.234071       -60.7922
  30   1.0000      -2.233660       -60.7810
  31   1.0000      -2.232816       -60.7580
  32   1.0000      -2.232729       -60.7557
  33   1.0000      -2.232379       -60.7461
  34   1.0000      -2.231920       -60.7336
  35   1.0000      -2.231543       -60.7234
  36   1.0000      -2.231090       -60.7111
  37   1.0000      -2.230291       -60.6893
  38   1.0000      -2.230224       -60.6875
  39   1.0000      -2.229624       -60.6711
  40   1.0000      -2.229584       -60.6701
  41   1.0000      -2.229052       -60.6556
  42   1.0000      -2.227153       -60.6039
  43   1.0000      -2.226360       -60.5823
  44   1.0000      -2.225690       -60.5641
  45   1.0000      -2.225161       -60.5497
  46   1.0000      -2.072103       -56.3848
  47   1.0000      -2.069132       -56.3040
  48   1.0000      -2.067419       -56.2573
  49   1.0000      -0.411693       -11.2027
  50   1.0000      -0.384325       -10.4580
  51   1.0000      -0.363368        -9.8878
  52   1.0000      -0.362059        -9.8521
  53   1.0000      -0.359045        -9.7701
  54   1.0000      -0.357097        -9.7171
  55   1.0000      -0.354863        -9.6563
  56   1.0000      -0.352361        -9.5882
  57   1.0000      -0.338555        -9.2126
  58   1.0000      -0.334545        -9.1034
  59   1.0000      -0.332145        -9.0381
  60   1.0000      -0.327402        -8.9091
  61   1.0000      -0.326926        -8.8961
  62   1.0000      -0.324718        -8.8360
  63   1.0000      -0.323044        -8.7905
  64   1.0000      -0.320069        -8.7095
  65   1.0000      -0.318376        -8.6635
  66   1.0000      -0.316909        -8.6235
  67   1.0000      -0.315114        -8.5747
  68   1.0000      -0.313162        -8.5216
  69   1.0000      -0.310365        -8.4455
  70   1.0000      -0.305613        -8.3162
  71   1.0000      -0.304055        -8.2738
  72   1.0000      -0.299753        -8.1567
  73   1.0000      -0.298436        -8.1209
  74   1.0000      -0.290089        -7.8937
  75   1.0000      -0.288998        -7.8640
  76   1.0000      -0.286542        -7.7972
  77   1.0000      -0.283526        -7.7151
  78   1.0000      -0.280719        -7.6388
  79   1.0000      -0.279139        -7.5958
  80   1.0000      -0.275370        -7.4932
  81   1.0000      -0.272982        -7.4282
  82   1.0000      -0.271810        -7.3963
  83   1.0000      -0.271197        -7.3796
  84   1.0000      -0.268876        -7.3165
  85   1.0000      -0.268521        -7.3068
  86   1.0000      -0.265366        -7.2210
  87   1.0000      -0.265127        -7.2145
  88   1.0000      -0.264134        -7.1875
  89   1.0000      -0.261157        -7.1064
  90   1.0000      -0.258853        -7.0438
  91   1.0000      -0.256249        -6.9729
  92   1.0000      -0.255207        -6.9445
  93   1.0000      -0.254405        -6.9227
  94   1.0000      -0.251916        -6.8550
  95   1.0000      -0.250672        -6.8211
  96   1.0000      -0.246899        -6.7185
  97   1.0000      -0.246806        -6.7159
  98   1.0000      -0.238834        -6.4990
  99   1.0000      -0.237688        -6.4678
 100   1.0000      -0.234876        -6.3913
 101   1.0000      -0.232978        -6.3397
 102   1.0000      -0.231929        -6.3111
 103   1.0000      -0.210978        -5.7410
 104   1.0000      -0.199193        -5.4203
 105   1.0000      -0.197757        -5.3813
 106   0.0000      -0.171116        -4.6563
 107   0.0000      -0.170105        -4.6288
 108   0.0000      -0.160720        -4.3734
 109   0.0000      -0.156864        -4.2685
 110   0.0000      -0.155125        -4.2212

MULLIKEN ATOMIC CHARGES AND SPIN POPULATIONS
--------------------------------------------
   0 Au:    0.222622    0.049635
   1 Au:    0.119649   -0.042645
   2 Au:    0.342928    0.092279
   3 Au:    0.006482    0.202538
   4 Au:    0.010629    0.191757
   5 Au:    0.166837    0.103951
   6 Au:    0.240867    0.071667
   7 Au:    0.253578   -0.063207
   8 Au:    0.242568    0.072033
   9 Au:    0.170690    0.096445
  10 Fe:   -1.776848    3.225548
Sum of atomic charges         :   -0.0000000

LOEWDIN ATOMIC CHARGES AND SPIN POPULATIONS
-------------------------------------------
   0 Au:    0.112230    0.026724
   1 Au:    0.027281    0.023492
   2 Au:    0.075526    0.097442
   3 Au:   -0.000865    0.138623
   4 Au:    0.001122    0.133070
   5 Au:    0.009828    0.062213
   6 Au:    0.089767    0.079291
   7 Au:    0.046881   -0.015760
   8 Au:    0.089278    0.081236
   9 Au:    0.012076    0.058265
  10 Fe:   -0.463124    3.315404

  Mayer bond orders larger than 0.100000
B(  0-Au,  1-Au) :   0.3761 B(  0-Au,  5-Au) :   0.1822 B(  0-Au,  9-Au) :   0.1798
B(  0-Au, 10-Fe) :   0.5832 B(  1-Au,  2-Au) :   0.3745 B(  1-Au,  3-Au) :   0.1589
B(  1-Au,  4-Au) :   0.1654 B(  1-Au, 10-Fe) :   0.5985 B(  2-Au,  3-Au) :   0.3439
B(  2-Au,  4-Au) :   0.3440 B(  2-Au, 10-Fe) :   0.1167 B(  3-Au,  8-Au) :   0.3665
B(  3-Au, 10-Fe) :   0.6234 B(  4-Au,  6-Au) :   0.3663 B(  4-Au, 10-Fe) :   0.6238
B(  5-Au,  6-Au) :   0.2346 B(  5-Au,  7-Au) :   0.2561 B(  5-Au,  9-Au) :   0.1623
B(  5-Au, 10-Fe) :   0.4814 B(  6-Au,  7-Au) :   0.1633 B(  6-Au, 10-Fe) :   0.6029
B(  7-Au,  8-Au) :   0.1665 B(  7-Au,  9-Au) :   0.2620 B(  7-Au, 10-Fe) :   0.5314
B(  8-Au,  9-Au) :   0.2318 B(  8-Au, 10-Fe) :   0.6034 B(  9-Au, 10-Fe) :   0.4857

FINAL SINGLE POINT ENERGY     -2621.730577044048

DIPOLE MOMENT
-------------
                                X             Y             Z
Electronic contribution:      4.51417      -0.82037       7.07494
Nuclear contribution   :     -4.56716       0.78455      -6.96334
                        -----------------------------------------
Total Dipole Moment    :     -0.05299      -0.03581       0.11160
                        -----------------------------------------
Magnitude (a.u.)       :      0.12863
Magnitude (Debye)      :      0.32695

Rotational constants in cm-1:     0.002344     0.001383     0.001329
Rotational constants in MHz :    70.257484    41.468757    39.839812

                             ****ORCA TERMINATED NORMALLY****
TOTAL RUN TIME: 0 days 1 hours 5 minutes 20 seconds 532 msec
