                         Program Version 5.0.3 -  RELEASE  -
|  1> %pal nprocs 1 end
|  2>
|  3> !PBE def2-TZVP OPT UNO
|  4> !SLOWCONV KDIIS
|  5>
|  6> %geom maxiter 300 end
|  7>
|  8> *xyzfile 0 6 5.xyz                           ****END OF INPUT****
 Total Charge           Charge          ....    0
 Multiplicity           Mult            ....    6
 Number of Electrons    NEL             ....  329
FINAL SINGLE POINT ENERGY     -3324.026219468629
FINAL SINGLE POINT ENERGY     -3324.031099038758
FINAL SINGLE POINT ENERGY     -3324.034259564145
FINAL SINGLE POINT ENERGY     -3324.035554150565
FINAL SINGLE POINT ENERGY     -3324.036212341552
FINAL SINGLE POINT ENERGY     -3324.036792880617
FINAL SINGLE POINT ENERGY     -3324.037395904896
FINAL SINGLE POINT ENERGY     -3324.037837877865
FINAL SINGLE POINT ENERGY     -3324.038089142197
FINAL SINGLE POINT ENERGY     -3324.038233463781
FINAL SINGLE POINT ENERGY     -3324.038487943987
FINAL SINGLE POINT ENERGY     -3324.038501164560
FINAL SINGLE POINT ENERGY     -3324.038510762009
FINAL SINGLE POINT ENERGY     -3324.038518466699
FINAL SINGLE POINT ENERGY     -3324.038526212881
FINAL SINGLE POINT ENERGY     -3324.038534940124
FINAL SINGLE POINT ENERGY     -3324.038542881734
FINAL SINGLE POINT ENERGY     -3324.038548214945
FINAL SINGLE POINT ENERGY     -3324.038554283411
                    ***********************HURRAY********************

CARTESIAN COORDINATES (ANGSTROEM)
---------------------------------
  Au     7.553850    8.069317   10.553548
  Au     5.994455    9.970893    9.090443
  Au     8.821568    9.924720    9.137025
  Au     6.281978    5.805841   11.444159
  Au     4.836749    7.463285    9.802049
  Au     9.097764    7.371364    8.102407
  Au     7.729776    5.470403    6.518810
  Au     4.451216    8.749633    5.077740
  Au     3.802784    8.787044    7.744193
  Au     6.479374    7.008604    4.527386
  Au     5.139796    6.485235    6.980795
  Au     7.551486   11.625891    7.362685
  Au     4.978902   11.035154    6.644026
  Au     7.096526    9.556746    5.502119
  Au     9.087445    7.598898    5.283834
  Au     9.668351    9.955571    6.530355
  Mn     6.932899    6.025766    8.905481

 Multiplicity           Mult            ....    6
 Number of Electrons    NEL             ....  329
 Basis Dimension        Dim             ....  685

ORBITAL ENERGIES
----------------
                 SPIN UP ORBITALS
  NO   OCC          E(Eh)            E(eV)
   0   1.0000    -234.218715     -6373.4153
   1   1.0000     -26.917936      -732.4743
   2   1.0000     -23.067188      -627.6901
   3   1.0000     -23.065754      -627.6511
   4   1.0000     -23.064747      -627.6237
   5   1.0000      -4.041634      -109.9784
   6   1.0000      -4.041538      -109.9759
   7   1.0000      -4.038380      -109.8899
   8   1.0000      -4.035797      -109.8196
   9   1.0000      -4.028965      -109.6337
  10   1.0000      -4.028901      -109.6320
  11   1.0000      -4.027532      -109.5947
  12   1.0000      -4.027448      -109.5924
  13   1.0000      -4.026511      -109.5669
  14   1.0000      -4.024834      -109.5213
  15   1.0000      -4.024537      -109.5132
  16   1.0000      -4.023309      -109.4798
  17   1.0000      -4.023142      -109.4752
  18   1.0000      -4.022961      -109.4703
  19   1.0000      -4.022791      -109.4657
  20   1.0000      -4.017073      -109.3101
  21   1.0000      -3.129871       -85.1681
  22   1.0000      -2.261356       -61.5346
  23   1.0000      -2.259634       -61.4878
  24   1.0000      -2.256323       -61.3977
  25   1.0000      -2.254407       -61.3455
  26   1.0000      -2.253556       -61.3224
  27   1.0000      -2.253240       -61.3138
  28   1.0000      -2.250396       -61.2364
  29   1.0000      -2.248971       -61.1976
  30   1.0000      -2.248326       -61.1801
  31   1.0000      -2.247864       -61.1675
  32   1.0000      -2.247741       -61.1641
  33   1.0000      -2.246492       -61.1302
  34   1.0000      -2.245718       -61.1091
  35   1.0000      -2.245373       -61.0997
  36   1.0000      -2.245185       -61.0946
  37   1.0000      -2.244709       -61.0816
  38   1.0000      -2.244339       -61.0716
  39   1.0000      -2.243886       -61.0592
  40   1.0000      -2.243422       -61.0466
  41   1.0000      -2.243287       -61.0429
  42   1.0000      -2.241898       -61.0051
  43   1.0000      -2.240856       -60.9768
  44   1.0000      -2.240502       -60.9671
  45   1.0000      -2.240150       -60.9576
  46   1.0000      -2.239962       -60.9525
  47   1.0000      -2.238491       -60.9124
  48   1.0000      -2.237721       -60.8915
  49   1.0000      -2.237377       -60.8821
  50   1.0000      -2.237067       -60.8737
  51   1.0000      -2.236743       -60.8649
  52   1.0000      -2.236635       -60.8619
  53   1.0000      -2.236021       -60.8452
  54   1.0000      -2.235920       -60.8425
  55   1.0000      -2.235493       -60.8308
  56   1.0000      -2.235217       -60.8233
  57   1.0000      -2.235073       -60.8194
  58   1.0000      -2.234965       -60.8165
  59   1.0000      -2.234595       -60.8064
  60   1.0000      -2.234548       -60.8052
  61   1.0000      -2.234254       -60.7971
  62   1.0000      -2.233277       -60.7705
  63   1.0000      -2.232691       -60.7546
  64   1.0000      -2.232551       -60.7508
  65   1.0000      -2.232326       -60.7447
  66   1.0000      -2.232198       -60.7412
  67   1.0000      -2.232130       -60.7393
  68   1.0000      -2.231955       -60.7346
  69   1.0000      -2.224006       -60.5183
  70   1.0000      -2.035018       -55.3756
  71   1.0000      -2.031215       -55.2722
  72   1.0000      -2.030313       -55.2476
  73   1.0000      -0.422727       -11.5030
  74   1.0000      -0.401192       -10.9170
  75   1.0000      -0.387017       -10.5313
  76   1.0000      -0.385444       -10.4885
  77   1.0000      -0.377106       -10.2616
  78   1.0000      -0.371867       -10.1190
  79   1.0000      -0.371673       -10.1137
  80   1.0000      -0.366631        -9.9765
  81   1.0000      -0.366141        -9.9632
  82   1.0000      -0.364262        -9.9121
  83   1.0000      -0.362506        -9.8643
  84   1.0000      -0.361331        -9.8323
  85   1.0000      -0.360568        -9.8116
  86   1.0000      -0.356340        -9.6965
  87   1.0000      -0.354896        -9.6572
  88   1.0000      -0.352426        -9.5900
  89   1.0000      -0.349537        -9.5114
  90   1.0000      -0.347933        -9.4677
  91   1.0000      -0.345952        -9.4138
  92   1.0000      -0.345284        -9.3956
  93   1.0000      -0.343207        -9.3391
  94   1.0000      -0.342550        -9.3213
  95   1.0000      -0.341108        -9.2820
  96   1.0000      -0.340211        -9.2576
  97   1.0000      -0.336728        -9.1628
  98   1.0000      -0.336386        -9.1535
  99   1.0000      -0.334464        -9.1012
 100   1.0000      -0.333301        -9.0696
 101   1.0000      -0.329698        -8.9715
 102   1.0000      -0.326567        -8.8863
 103   1.0000      -0.326196        -8.8763
 104   1.0000      -0.325016        -8.8441
 105   1.0000      -0.322211        -8.7678
 106   1.0000      -0.321729        -8.7547
 107   1.0000      -0.319752        -8.7009
 108   1.0000      -0.317075        -8.6281
 109   1.0000      -0.311552        -8.4778
 110   1.0000      -0.309285        -8.4161
 111   1.0000      -0.306057        -8.3282
 112   1.0000      -0.303504        -8.2588
 113   1.0000      -0.303225        -8.2512
 114   1.0000      -0.302960        -8.2440
 115   1.0000      -0.301976        -8.2172
 116   1.0000      -0.296173        -8.0593
 117   1.0000      -0.295413        -8.0386
 118   1.0000      -0.295135        -8.0310
 119   1.0000      -0.294290        -8.0081
 120   1.0000      -0.288692        -7.8557
 121   1.0000      -0.288056        -7.8384
 122   1.0000      -0.285878        -7.7791
 123   1.0000      -0.285517        -7.7693
 124   1.0000      -0.282470        -7.6864
 125   1.0000      -0.282284        -7.6813
 126   1.0000      -0.280138        -7.6230
 127   1.0000      -0.279657        -7.6099
 128   1.0000      -0.279336        -7.6011
 129   1.0000      -0.276822        -7.5327
 130   1.0000      -0.272349        -7.4110
 131   1.0000      -0.270813        -7.3692
 132   1.0000      -0.269890        -7.3441
 133   1.0000      -0.268573        -7.3083
 134   1.0000      -0.267233        -7.2718
 135   1.0000      -0.265908        -7.2357
 136   1.0000      -0.265475        -7.2239
 137   1.0000      -0.263587        -7.1726
 138   1.0000      -0.263416        -7.1679
 139   1.0000      -0.262807        -7.1513
 140   1.0000      -0.262180        -7.1343
 141   1.0000      -0.259690        -7.0665
 142   1.0000      -0.259428        -7.0594
 143   1.0000      -0.257738        -7.0134
 144   1.0000      -0.257203        -6.9988
 145   1.0000      -0.256865        -6.9896
 146   1.0000      -0.255389        -6.9495
 147   1.0000      -0.253564        -6.8998
 148   1.0000      -0.252525        -6.8715
 149   1.0000      -0.252053        -6.8587
 150   1.0000      -0.250069        -6.8047
 151   1.0000      -0.249830        -6.7982
 152   1.0000      -0.248188        -6.7535
 153   1.0000      -0.247243        -6.7278
 154   1.0000      -0.246664        -6.7121
 155   1.0000      -0.244387        -6.6501
 156   1.0000      -0.244327        -6.6485
 157   1.0000      -0.243286        -6.6201
 158   1.0000      -0.241323        -6.5667
 159   1.0000      -0.237400        -6.4600
 160   1.0000      -0.235798        -6.4164
 161   1.0000      -0.235498        -6.4082
 162   1.0000      -0.223260        -6.0752
 163   1.0000      -0.219719        -5.9789
 164   1.0000      -0.216484        -5.8908
 165   1.0000      -0.206896        -5.6299
 166   1.0000      -0.203098        -5.5266
 167   0.0000      -0.171860        -4.6766
 168   0.0000      -0.138989        -3.7821
 169   0.0000      -0.133444        -3.6312
 170   0.0000      -0.131877        -3.5886
 171   0.0000      -0.125334        -3.4105

                 SPIN DOWN ORBITALS
  NO   OCC          E(Eh)            E(eV)
   0   1.0000    -234.217864     -6373.3921
   1   1.0000     -26.848760      -730.5919
   2   1.0000     -23.013712      -626.2349
   3   1.0000     -23.013194      -626.2208
   4   1.0000     -23.013102      -626.2183
   5   1.0000      -4.040385      -109.9445
   6   1.0000      -4.040283      -109.9417
   7   1.0000      -4.036778      -109.8463
   8   1.0000      -4.034287      -109.7785
   9   1.0000      -4.027472      -109.5931
  10   1.0000      -4.027390      -109.5908
  11   1.0000      -4.027254      -109.5871
  12   1.0000      -4.027189      -109.5854
  13   1.0000      -4.026210      -109.5588
  14   1.0000      -4.024736      -109.5186
  15   1.0000      -4.024443      -109.5106
  16   1.0000      -4.023255      -109.4783
  17   1.0000      -4.023056      -109.4729
  18   1.0000      -4.022888      -109.4683
  19   1.0000      -4.022686      -109.4628
  20   1.0000      -4.017048      -109.3094
  21   1.0000      -2.959323       -80.5273
  22   1.0000      -2.259836       -61.4933
  23   1.0000      -2.258252       -61.4501
  24   1.0000      -2.254155       -61.3387
  25   1.0000      -2.251959       -61.2789
  26   1.0000      -2.251862       -61.2763
  27   1.0000      -2.251499       -61.2664
  28   1.0000      -2.249471       -61.2112
  29   1.0000      -2.248044       -61.1724
  30   1.0000      -2.246842       -61.1397
  31   1.0000      -2.246452       -61.1291
  32   1.0000      -2.246283       -61.1245
  33   1.0000      -2.245279       -61.0972
  34   1.0000      -2.244991       -61.0893
  35   1.0000      -2.244387       -61.0729
  36   1.0000      -2.243934       -61.0605
  37   1.0000      -2.243562       -61.0504
  38   1.0000      -2.243456       -61.0475
  39   1.0000      -2.243065       -61.0369
  40   1.0000      -2.242205       -61.0135
  41   1.0000      -2.241993       -61.0077
  42   1.0000      -2.241771       -61.0017
  43   1.0000      -2.240484       -60.9667
  44   1.0000      -2.240091       -60.9560
  45   1.0000      -2.240013       -60.9538
  46   1.0000      -2.239639       -60.9437
  47   1.0000      -2.238359       -60.9089
  48   1.0000      -2.237598       -60.8881
  49   1.0000      -2.237283       -60.8796
  50   1.0000      -2.236935       -60.8701
  51   1.0000      -2.236633       -60.8619
  52   1.0000      -2.236494       -60.8581
  53   1.0000      -2.235856       -60.8407
  54   1.0000      -2.235810       -60.8395
  55   1.0000      -2.235231       -60.8237
  56   1.0000      -2.234989       -60.8171
  57   1.0000      -2.234862       -60.8137
  58   1.0000      -2.234734       -60.8102
  59   1.0000      -2.234285       -60.7980
  60   1.0000      -2.233734       -60.7830
  61   1.0000      -2.233551       -60.7780
  62   1.0000      -2.233052       -60.7644
  63   1.0000      -2.232558       -60.7510
  64   1.0000      -2.232404       -60.7468
  65   1.0000      -2.232275       -60.7433
  66   1.0000      -2.232100       -60.7385
  67   1.0000      -2.232066       -60.7376
  68   1.0000      -2.231860       -60.7320
  69   1.0000      -2.223996       -60.5180
  70   1.0000      -1.865556       -50.7644
  71   1.0000      -1.864591       -50.7381
  72   1.0000      -1.863765       -50.7156
  73   1.0000      -0.418271       -11.3817
  74   1.0000      -0.398396       -10.8409
  75   1.0000      -0.386167       -10.5081
  76   1.0000      -0.380781       -10.3616
  77   1.0000      -0.374465       -10.1897
  78   1.0000      -0.368568       -10.0292
  79   1.0000      -0.368469       -10.0265
  80   1.0000      -0.365859        -9.9555
  81   1.0000      -0.365648        -9.9498
  82   1.0000      -0.362686        -9.8692
  83   1.0000      -0.359806        -9.7908
  84   1.0000      -0.359430        -9.7806
  85   1.0000      -0.356491        -9.7006
  86   1.0000      -0.352083        -9.5807
  87   1.0000      -0.350847        -9.5470
  88   1.0000      -0.347118        -9.4456
  89   1.0000      -0.345822        -9.4103
  90   1.0000      -0.344527        -9.3751
  91   1.0000      -0.344121        -9.3640
  92   1.0000      -0.342316        -9.3149
  93   1.0000      -0.340755        -9.2724
  94   1.0000      -0.339387        -9.2352
  95   1.0000      -0.337215        -9.1761
  96   1.0000      -0.336856        -9.1663
  97   1.0000      -0.334195        -9.0939
  98   1.0000      -0.332339        -9.0434
  99   1.0000      -0.330214        -8.9856
 100   1.0000      -0.329139        -8.9563
 101   1.0000      -0.326278        -8.8785
 102   1.0000      -0.323978        -8.8159
 103   1.0000      -0.322484        -8.7752
 104   1.0000      -0.319539        -8.6951
 105   1.0000      -0.319449        -8.6926
 106   1.0000      -0.318918        -8.6782
 107   1.0000      -0.312342        -8.4993
 108   1.0000      -0.311180        -8.4676
 109   1.0000      -0.308803        -8.4030
 110   1.0000      -0.306731        -8.3466
 111   1.0000      -0.302937        -8.2433
 112   1.0000      -0.301488        -8.2039
 113   1.0000      -0.300346        -8.1728
 114   1.0000      -0.299888        -8.1604
 115   1.0000      -0.294882        -8.0242
 116   1.0000      -0.292506        -7.9595
 117   1.0000      -0.291380        -7.9288
 118   1.0000      -0.290141        -7.8951
 119   1.0000      -0.288966        -7.8632
 120   1.0000      -0.287273        -7.8171
 121   1.0000      -0.286948        -7.8082
 122   1.0000      -0.283988        -7.7277
 123   1.0000      -0.282542        -7.6883
 124   1.0000      -0.281181        -7.6513
 125   1.0000      -0.277307        -7.5459
 126   1.0000      -0.276942        -7.5360
 127   1.0000      -0.276855        -7.5336
 128   1.0000      -0.273746        -7.4490
 129   1.0000      -0.273330        -7.4377
 130   1.0000      -0.270590        -7.3631
 131   1.0000      -0.267871        -7.2891
 132   1.0000      -0.266696        -7.2572
 133   1.0000      -0.264274        -7.1913
 134   1.0000      -0.263772        -7.1776
 135   1.0000      -0.263523        -7.1708
 136   1.0000      -0.261909        -7.1269
 137   1.0000      -0.260916        -7.0999
 138   1.0000      -0.259943        -7.0734
 139   1.0000      -0.259317        -7.0564
 140   1.0000      -0.257189        -6.9985
 141   1.0000      -0.256819        -6.9884
 142   1.0000      -0.254657        -6.9296
 143   1.0000      -0.254488        -6.9250
 144   1.0000      -0.252449        -6.8695
 145   1.0000      -0.251748        -6.8504
 146   1.0000      -0.251076        -6.8321
 147   1.0000      -0.248638        -6.7658
 148   1.0000      -0.247625        -6.7382
 149   1.0000      -0.247455        -6.7336
 150   1.0000      -0.244245        -6.6462
 151   1.0000      -0.244164        -6.6440
 152   1.0000      -0.243623        -6.6293
 153   1.0000      -0.242240        -6.5917
 154   1.0000      -0.238211        -6.4820
 155   1.0000      -0.237301        -6.4573
 156   1.0000      -0.235252        -6.4015
 157   1.0000      -0.225087        -6.1249
 158   1.0000      -0.220034        -5.9874
 159   1.0000      -0.214346        -5.8327
 160   1.0000      -0.208219        -5.6659
 161   1.0000      -0.202032        -5.4976
 162   0.0000      -0.173596        -4.7238
 163   0.0000      -0.162080        -4.4104
 164   0.0000      -0.161846        -4.4040
 165   0.0000      -0.148088        -4.0297
 166   0.0000      -0.144010        -3.9187

MULLIKEN ATOMIC CHARGES AND SPIN POPULATIONS
--------------------------------------------
   0 Au:    0.039183    0.032595
   1 Au:   -0.550428   -0.000597
   2 Au:    0.096159    0.021815
   3 Au:    0.368040    0.055601
   4 Au:    0.036584    0.032623
   5 Au:   -0.182872    0.024047
   6 Au:    0.263027    0.029206
   7 Au:    0.315942    0.015448
   8 Au:    0.109533    0.021202
   9 Au:    0.152530    0.016673
  10 Au:   -0.194560    0.023484
  11 Au:    0.280109    0.011341
  12 Au:    0.273394    0.011438
  13 Au:   -1.008490    0.011257
  14 Au:    0.140726    0.016926
  15 Au:    0.320515    0.014853
  16 Mn:   -0.459391    4.662086
Sum of atomic charges         :   -0.0000000

LOEWDIN ATOMIC CHARGES AND SPIN POPULATIONS
-------------------------------------------
   0 Au:   -0.034623    0.058064
   1 Au:   -0.080175    0.005289
   2 Au:   -0.028321    0.014333
   3 Au:    0.161090    0.068996
   4 Au:   -0.034273    0.058544
   5 Au:   -0.014780    0.067179
   6 Au:    0.028585    0.066344
   7 Au:    0.030349    0.015634
   8 Au:   -0.026572    0.014164
   9 Au:   -0.010444    0.009794
  10 Au:   -0.016415    0.067102
  11 Au:    0.036023    0.012293
  12 Au:    0.035078    0.012264
  13 Au:   -0.102959    0.013386
  14 Au:   -0.012916    0.009835
  15 Au:    0.033023    0.015545
  16 Mn:    0.037331    4.491233

  Mayer bond orders larger than 0.100000
B(  0-Au,  1-Au) :   0.3340 B(  0-Au,  2-Au) :   0.4590 B(  0-Au,  3-Au) :   0.3278
B(  0-Au,  4-Au) :   0.1732 B(  0-Au,  5-Au) :   0.1360 B(  0-Au, 16-Mn) :   0.3897
B(  1-Au,  2-Au) :   0.2424 B(  1-Au,  4-Au) :   0.3405 B(  1-Au,  8-Au) :   0.2405
B(  1-Au, 11-Au) :   0.2422 B(  1-Au, 12-Au) :   0.2427 B(  1-Au, 13-Au) :   0.1362
B(  2-Au,  5-Au) :   0.3147 B(  2-Au, 11-Au) :   0.2582 B(  2-Au, 15-Au) :   0.2814
B(  3-Au,  4-Au) :   0.3277 B(  3-Au, 16-Mn) :   0.5794 B(  4-Au,  8-Au) :   0.4563
B(  4-Au, 10-Au) :   0.1287 B(  4-Au, 16-Mn) :   0.3925 B(  5-Au,  6-Au) :   0.1626
B(  5-Au, 14-Au) :   0.2831 B(  5-Au, 15-Au) :   0.1412 B(  5-Au, 16-Mn) :   0.5540
B(  6-Au,  9-Au) :   0.2318 B(  6-Au, 10-Au) :   0.1674 B(  6-Au, 14-Au) :   0.2326
B(  6-Au, 16-Mn) :   0.5387 B(  7-Au,  8-Au) :   0.2779 B(  7-Au,  9-Au) :   0.3341
B(  7-Au, 10-Au) :   0.1556 B(  7-Au, 12-Au) :   0.2308 B(  7-Au, 13-Au) :   0.3997
B(  8-Au, 10-Au) :   0.3174 B(  8-Au, 12-Au) :   0.2613 B(  9-Au, 10-Au) :   0.2724
B(  9-Au, 13-Au) :   0.4184 B(  9-Au, 14-Au) :   0.2942 B( 10-Au, 16-Mn) :   0.5535
B( 11-Au, 12-Au) :   0.3387 B( 11-Au, 13-Au) :   0.3703 B( 11-Au, 15-Au) :   0.2279
B( 12-Au, 13-Au) :   0.3690 B( 13-Au, 14-Au) :   0.4161 B( 13-Au, 15-Au) :   0.3990
B( 14-Au, 15-Au) :   0.3357

FINAL SINGLE POINT ENERGY     -3324.038559256569

DIPOLE MOMENT
-------------
                                X             Y             Z
Electronic contribution:     -5.41950      87.35864     -50.11069
Nuclear contribution   :      5.38419     -87.96850      50.73733
                        -----------------------------------------
Total Dipole Moment    :     -0.03531      -0.60986       0.62664
                        -----------------------------------------
Magnitude (a.u.)       :      0.87514
Magnitude (Debye)      :      2.22442

Rotational constants in cm-1:     0.000876     0.000748     0.000731
Rotational constants in MHz :    26.268852    22.437778    21.909043

                             ****ORCA TERMINATED NORMALLY****
TOTAL RUN TIME: 0 days 8 hours 2 minutes 10 seconds 889 msec
