                         Program Version 5.0.3 -  RELEASE  -
|  1> !RI-B2PLYP def2-TZVP def2-TZVP/C
|  2> !RIJCOSX VERYSLOWCONV
|  3>
|  4> %scf
|  5>   AutoTRAHIter 200
|  6>   maxiter 400
|  7> end
|  8>
|  9>
| 10> %pal nprocs 6 end
| 11>
| 12> *xyzfile 0 6 pbe.xyz
| 13>
| 14> $new_job
| 15>
| 16> !RI-B2PLYP def2-TZVP def2-TZVP/C
| 17> !RIJCOSX VERYSLOWCONV
| 18>
| 19> %scf
| 20>   AutoTRAHIter 200
| 21>   maxiter 400
| 22> end
| 23>
| 24>
| 25> %pal nprocs 6 end
| 26>
| 27> *xyzfile 0 4 pbe.xyz
| 28>
| 29>
| 30>
| 31>
| 32>
| 33>                          ****END OF INPUT****
 Total Charge           Charge          ....    0
 Multiplicity           Mult            ....    6
 Number of Electrons    NEL             ....  215
MP2 TOTAL ENERGY:    -2506.641895394 Eh
FINAL SINGLE POINT ENERGY     -2506.641895393972

CARTESIAN COORDINATES (ANGSTROEM)
---------------------------------
  Au     7.784069    7.302346    4.443493
  Au     6.182142    6.181766    6.647033
  Au     9.961891    7.808561    5.948277
  Au     7.248241   10.079390    4.740316
  Au     5.211124    6.578112    4.078771
  Au     5.065098    8.728768    5.853425
  Au     7.700976    9.497693   10.213228
  Au     9.597351    8.590711    8.511293
  Au     7.116480    7.077112    8.943767
  Au     5.753729    9.709748    8.271275
  Mn     7.574908    8.556626    6.823666

 Multiplicity           Mult            ....    4
 Number of Electrons    NEL             ....  215
 Basis Dimension        Dim             ....  445

ORBITAL ENERGIES
----------------
                 SPIN UP ORBITALS
  NO   OCC          E(Eh)            E(eV)
   0   1.0000    -237.616913     -6465.8849
   1   1.0000     -28.122289      -765.2464
   2   1.0000     -24.040702      -654.1807
   3   1.0000     -24.039513      -654.1484
   4   1.0000     -24.039301      -654.1426
   5   1.0000      -4.400389      -119.7407
   6   1.0000      -4.398779      -119.6969
   7   1.0000      -4.395240      -119.6006
   8   1.0000      -4.394808      -119.5888
   9   1.0000      -4.394304      -119.5751
  10   1.0000      -4.391147      -119.4892
  11   1.0000      -4.390755      -119.4785
  12   1.0000      -4.386896      -119.3735
  13   1.0000      -4.385736      -119.3420
  14   1.0000      -4.384051      -119.2961
  15   1.0000      -3.598929       -97.9319
  16   1.0000      -2.522197       -68.6325
  17   1.0000      -2.520567       -68.5881
  18   1.0000      -2.518663       -68.5363
  19   1.0000      -2.517872       -68.5148
  20   1.0000      -2.517375       -68.5013
  21   1.0000      -2.516947       -68.4896
  22   1.0000      -2.515978       -68.4632
  23   1.0000      -2.515528       -68.4510
  24   1.0000      -2.515142       -68.4405
  25   1.0000      -2.513567       -68.3976
  26   1.0000      -2.513092       -68.3847
  27   1.0000      -2.511781       -68.3490
  28   1.0000      -2.510910       -68.3253
  29   1.0000      -2.509847       -68.2964
  30   1.0000      -2.509465       -68.2860
  31   1.0000      -2.508508       -68.2600
  32   1.0000      -2.508290       -68.2541
  33   1.0000      -2.507372       -68.2291
  34   1.0000      -2.506984       -68.2185
  35   1.0000      -2.506579       -68.2075
  36   1.0000      -2.503790       -68.1316
  37   1.0000      -2.503523       -68.1243
  38   1.0000      -2.503130       -68.1136
  39   1.0000      -2.502346       -68.0923
  40   1.0000      -2.501776       -68.0768
  41   1.0000      -2.501506       -68.0694
  42   1.0000      -2.501437       -68.0676
  43   1.0000      -2.500244       -68.0351
  44   1.0000      -2.500062       -68.0301
  45   1.0000      -2.498617       -67.9908
  46   1.0000      -2.401247       -65.3413
  47   1.0000      -2.399198       -65.2855
  48   1.0000      -2.398854       -65.2761
  49   1.0000      -0.513433       -13.9712
  50   1.0000      -0.510596       -13.8940
  51   1.0000      -0.507709       -13.8155
  52   1.0000      -0.503514       -13.7013
  53   1.0000      -0.500619       -13.6225
  54   1.0000      -0.478989       -13.0339
  55   1.0000      -0.462772       -12.5927
  56   1.0000      -0.452434       -12.3114
  57   1.0000      -0.451021       -12.2729
  58   1.0000      -0.447546       -12.1783
  59   1.0000      -0.444555       -12.0969
  60   1.0000      -0.441128       -12.0037
  61   1.0000      -0.438762       -11.9393
  62   1.0000      -0.433687       -11.8012
  63   1.0000      -0.433117       -11.7857
  64   1.0000      -0.430187       -11.7060
  65   1.0000      -0.426510       -11.6059
  66   1.0000      -0.419665       -11.4197
  67   1.0000      -0.418200       -11.3798
  68   1.0000      -0.413838       -11.2611
  69   1.0000      -0.412401       -11.2220
  70   1.0000      -0.408468       -11.1150
  71   1.0000      -0.405293       -11.0286
  72   1.0000      -0.403362       -10.9760
  73   1.0000      -0.401117       -10.9149
  74   1.0000      -0.393528       -10.7084
  75   1.0000      -0.392079       -10.6690
  76   1.0000      -0.389561       -10.6005
  77   1.0000      -0.385342       -10.4857
  78   1.0000      -0.382799       -10.4165
  79   1.0000      -0.381240       -10.3741
  80   1.0000      -0.378293       -10.2939
  81   1.0000      -0.375857       -10.2276
  82   1.0000      -0.373791       -10.1714
  83   1.0000      -0.372049       -10.1240
  84   1.0000      -0.370394       -10.0789
  85   1.0000      -0.369360       -10.0508
  86   1.0000      -0.365910        -9.9569
  87   1.0000      -0.363696        -9.8967
  88   1.0000      -0.362390        -9.8611
  89   1.0000      -0.360979        -9.8227
  90   1.0000      -0.360649        -9.8138
  91   1.0000      -0.359922        -9.7940
  92   1.0000      -0.358351        -9.7512
  93   1.0000      -0.356214        -9.6931
  94   1.0000      -0.355096        -9.6627
  95   1.0000      -0.351452        -9.5635
  96   1.0000      -0.350732        -9.5439
  97   1.0000      -0.347225        -9.4485
  98   1.0000      -0.345811        -9.4100
  99   1.0000      -0.343239        -9.3400
 100   1.0000      -0.341828        -9.3016
 101   1.0000      -0.340318        -9.2605
 102   1.0000      -0.327111        -8.9011
 103   1.0000      -0.321598        -8.7511
 104   1.0000      -0.316395        -8.6095
 105   1.0000      -0.314751        -8.5648
 106   1.0000      -0.275666        -7.5013
 107   1.0000      -0.253537        -6.8991
 108   1.0000      -0.225416        -6.1339
 109   0.0000      -0.115342        -3.1386
 110   0.0000      -0.104817        -2.8522
 111   0.0000      -0.065638        -1.7861
 112   0.0000      -0.059297        -1.6136
 113   0.0000      -0.056919        -1.5488

                 SPIN DOWN ORBITALS
  NO   OCC          E(Eh)            E(eV)
   0   1.0000    -237.614742     -6465.8259
   1   1.0000     -28.022105      -762.5203
   2   1.0000     -23.948039      -651.6593
   3   1.0000     -23.947870      -651.6547
   4   1.0000     -23.947651      -651.6487
   5   1.0000      -4.401296      -119.7653
   6   1.0000      -4.399371      -119.7130
   7   1.0000      -4.395224      -119.6001
   8   1.0000      -4.395080      -119.5962
   9   1.0000      -4.393819      -119.5619
  10   1.0000      -4.391157      -119.4895
  11   1.0000      -4.390632      -119.4752
  12   1.0000      -4.387677      -119.3948
  13   1.0000      -4.386412      -119.3603
  14   1.0000      -4.385529      -119.3363
  15   1.0000      -3.317205       -90.2657
  16   1.0000      -2.522033       -68.6280
  17   1.0000      -2.520522       -68.5869
  18   1.0000      -2.518610       -68.5349
  19   1.0000      -2.516809       -68.4858
  20   1.0000      -2.516334       -68.4729
  21   1.0000      -2.516169       -68.4684
  22   1.0000      -2.515692       -68.4555
  23   1.0000      -2.514506       -68.4232
  24   1.0000      -2.513699       -68.4012
  25   1.0000      -2.513054       -68.3837
  26   1.0000      -2.512580       -68.3708
  27   1.0000      -2.511037       -68.3288
  28   1.0000      -2.510444       -68.3127
  29   1.0000      -2.508544       -68.2610
  30   1.0000      -2.508298       -68.2543
  31   1.0000      -2.507883       -68.2430
  32   1.0000      -2.507778       -68.2401
  33   1.0000      -2.507754       -68.2394
  34   1.0000      -2.507214       -68.2248
  35   1.0000      -2.505903       -68.1891
  36   1.0000      -2.504696       -68.1562
  37   1.0000      -2.504183       -68.1423
  38   1.0000      -2.503469       -68.1229
  39   1.0000      -2.502524       -68.0971
  40   1.0000      -2.502414       -68.0941
  41   1.0000      -2.502158       -68.0872
  42   1.0000      -2.502018       -68.0834
  43   1.0000      -2.501806       -68.0776
  44   1.0000      -2.500471       -68.0413
  45   1.0000      -2.499351       -68.0108
  46   1.0000      -2.078431       -56.5570
  47   1.0000      -2.077717       -56.5375
  48   1.0000      -2.076393       -56.5015
  49   1.0000      -0.483539       -13.1578
  50   1.0000      -0.467136       -12.7114
  51   1.0000      -0.460268       -12.5245
  52   1.0000      -0.456925       -12.4336
  53   1.0000      -0.455096       -12.3838
  54   1.0000      -0.452778       -12.3207
  55   1.0000      -0.449420       -12.2293
  56   1.0000      -0.444108       -12.0848
  57   1.0000      -0.441602       -12.0166
  58   1.0000      -0.439033       -11.9467
  59   1.0000      -0.436402       -11.8751
  60   1.0000      -0.435619       -11.8538
  61   1.0000      -0.433532       -11.7970
  62   1.0000      -0.426002       -11.5921
  63   1.0000      -0.422875       -11.5070
  64   1.0000      -0.418979       -11.4010
  65   1.0000      -0.414814       -11.2877
  66   1.0000      -0.411410       -11.1950
  67   1.0000      -0.409912       -11.1543
  68   1.0000      -0.406467       -11.0605
  69   1.0000      -0.403105       -10.9691
  70   1.0000      -0.397929       -10.8282
  71   1.0000      -0.395775       -10.7696
  72   1.0000      -0.391897       -10.6641
  73   1.0000      -0.390085       -10.6148
  74   1.0000      -0.385299       -10.4845
  75   1.0000      -0.383993       -10.4490
  76   1.0000      -0.382890       -10.4190
  77   1.0000      -0.380631       -10.3575
  78   1.0000      -0.377324       -10.2675
  79   1.0000      -0.375414       -10.2155
  80   1.0000      -0.374297       -10.1851
  81   1.0000      -0.372534       -10.1372
  82   1.0000      -0.368890       -10.0380
  83   1.0000      -0.368290       -10.0217
  84   1.0000      -0.366169        -9.9640
  85   1.0000      -0.362993        -9.8775
  86   1.0000      -0.362604        -9.8669
  87   1.0000      -0.362181        -9.8554
  88   1.0000      -0.359840        -9.7917
  89   1.0000      -0.358611        -9.7583
  90   1.0000      -0.356443        -9.6993
  91   1.0000      -0.352886        -9.6025
  92   1.0000      -0.350419        -9.5354
  93   1.0000      -0.348662        -9.4876
  94   1.0000      -0.346329        -9.4241
  95   1.0000      -0.344780        -9.3819
  96   1.0000      -0.343375        -9.3437
  97   1.0000      -0.335334        -9.1249
  98   1.0000      -0.328440        -8.9373
  99   1.0000      -0.324212        -8.8223
 100   1.0000      -0.319152        -8.6846
 101   1.0000      -0.299444        -8.1483
 102   1.0000      -0.270490        -7.3604
 103   1.0000      -0.234331        -6.3765
 104   1.0000      -0.219556        -5.9744
 105   1.0000      -0.210831        -5.7370
 106   0.0000      -0.076047        -2.0694
 107   0.0000      -0.073201        -1.9919
 108   0.0000      -0.060039        -1.6338
 109   0.0000      -0.044006        -1.1975
 110   0.0000      -0.028341        -0.7712

MULLIKEN ATOMIC CHARGES AND SPIN POPULATIONS
--------------------------------------------
   0 Au:    0.034339   -0.252290
   1 Au:    0.001153    0.038761
   2 Au:    0.157826   -0.141996
   3 Au:    0.218884   -0.343573
   4 Au:    0.300341   -0.002963
   5 Au:    0.082808   -0.170391
   6 Au:    0.195144   -0.109140
   7 Au:    0.103208   -0.265941
   8 Au:    0.114010   -0.156583
   9 Au:    0.113942   -0.281860
  10 Mn:   -1.321654    4.685977
Sum of atomic charges         :   -0.0000000

LOEWDIN ATOMIC CHARGES AND SPIN POPULATIONS
-------------------------------------------
   0 Au:   -0.090979   -0.168125
   1 Au:   -0.020506   -0.024627
   2 Au:    0.092136   -0.212940
   3 Au:    0.101877   -0.243393
   4 Au:    0.103209   -0.033889
   5 Au:   -0.052284   -0.145950
   6 Au:    0.050536   -0.140050
   7 Au:   -0.002076   -0.173293
   8 Au:   -0.014457   -0.111692
   9 Au:    0.034162   -0.180294
  10 Mn:   -0.201618    4.434253

  Mayer bond orders larger than 0.100000
B(  0-Au,  1-Au) :   0.1641 B(  0-Au,  2-Au) :   0.3313 B(  0-Au,  3-Au) :   0.1053
B(  0-Au,  4-Au) :   0.4200 B(  0-Au,  5-Au) :   0.1214 B(  0-Au, 10-Mn) :   0.4057
B(  1-Au,  4-Au) :   0.3102 B(  1-Au,  5-Au) :   0.1836 B(  1-Au,  8-Au) :   0.4966
B(  1-Au, 10-Mn) :   0.3813 B(  2-Au,  7-Au) :   0.2365 B(  2-Au, 10-Mn) :   0.5885
B(  3-Au,  5-Au) :   0.1775 B(  3-Au, 10-Mn) :   0.5646 B(  4-Au,  5-Au) :   0.2898
B(  5-Au,  9-Au) :   0.3352 B(  5-Au, 10-Mn) :   0.4796 B(  6-Au,  7-Au) :   0.3627
B(  6-Au,  8-Au) :   0.2358 B(  6-Au,  9-Au) :   0.2975 B(  6-Au, 10-Mn) :   0.1539
B(  7-Au, 10-Mn) :   0.4477 B(  8-Au, 10-Mn) :   0.5487 B(  9-Au, 10-Mn) :   0.5054

MP2 TOTAL ENERGY:    -2506.654810906 Eh
FINAL SINGLE POINT ENERGY     -2506.654810905835

DIPOLE MOMENT
-------------
                                X             Y             Z
Electronic contribution:    -15.02957     -14.39425      -2.23913
Nuclear contribution   :     14.95069      14.53085       2.12157
                        -----------------------------------------
Total Dipole Moment    :     -0.07887       0.13660      -0.11756
                        -----------------------------------------
Magnitude (a.u.)       :      0.19672
Magnitude (Debye)      :      0.50002

Rotational constants in cm-1:     0.002294     0.001428     0.001256
Rotational constants in MHz :    68.782754    42.796420    37.655536

                             ****ORCA TERMINATED NORMALLY****
TOTAL RUN TIME: 0 days 0 hours 32 minutes 28 seconds 41 msec
