                         Program Version 5.0.3 -  RELEASE  -
|  1> !PBE def2-TZVP VERYSLOWCONV
|  2> !KDIIS
|  3>
|  4> %scf
|  5>   AutoTRAHIter 200
|  6>   maxiter 400
|  7> end
|  8>
|  9>
| 10> %pal nprocs 6 end
| 11>
| 12> *xyzfile 0 6 pbe.xyz
| 13>
| 14> $new_job
| 15>
| 16> !PBE def2-TZVP VERYSLOWCONV
| 17> !KDIIS
| 18>
| 19> %scf
| 20>   AutoTRAHIter 200
| 21>   maxiter 400
| 22> end
| 23>
| 24>
| 25> %pal nprocs 6 end
| 26>
| 27> *xyzfile 0 4 pbe.xyz
| 28>
| 29>
| 30>
| 31>
| 32>
| 33>                          ****END OF INPUT****
 Total Charge           Charge          ....    0
 Multiplicity           Mult            ....    6
 Number of Electrons    NEL             ....  215
FINAL SINGLE POINT ENERGY     -2508.964692197174

CARTESIAN COORDINATES (ANGSTROEM)
---------------------------------
  Au     7.784069    7.302346    4.443493
  Au     6.182142    6.181766    6.647033
  Au     9.961891    7.808561    5.948277
  Au     7.248241   10.079390    4.740316
  Au     5.211124    6.578112    4.078771
  Au     5.065098    8.728768    5.853425
  Au     7.700976    9.497693   10.213228
  Au     9.597351    8.590711    8.511293
  Au     7.116480    7.077112    8.943767
  Au     5.753729    9.709748    8.271275
  Mn     7.574908    8.556626    6.823666

 Multiplicity           Mult            ....    4
 Number of Electrons    NEL             ....  215
 Basis Dimension        Dim             ....  445

ORBITAL ENERGIES
----------------
                 SPIN UP ORBITALS
  NO   OCC          E(Eh)            E(eV)
   0   1.0000    -234.188480     -6372.5925
   1   1.0000     -26.881910      -731.4939
   2   1.0000     -23.035293      -626.8222
   3   1.0000     -23.032005      -626.7327
   4   1.0000     -23.026525      -626.5836
   5   1.0000      -4.032512      -109.7302
   6   1.0000      -4.030925      -109.6870
   7   1.0000      -4.024618      -109.5154
   8   1.0000      -4.023224      -109.4775
   9   1.0000      -4.022737      -109.4642
  10   1.0000      -4.021922      -109.4421
  11   1.0000      -4.018865      -109.3589
  12   1.0000      -4.016310      -109.2894
  13   1.0000      -4.016250      -109.2877
  14   1.0000      -4.013934      -109.2247
  15   1.0000      -3.083932       -83.9181
  16   1.0000      -2.250407       -61.2367
  17   1.0000      -2.248690       -61.1900
  18   1.0000      -2.245208       -61.0952
  19   1.0000      -2.243545       -61.0500
  20   1.0000      -2.242445       -61.0200
  21   1.0000      -2.242175       -61.0127
  22   1.0000      -2.241777       -61.0018
  23   1.0000      -2.239785       -60.9476
  24   1.0000      -2.239476       -60.9392
  25   1.0000      -2.239200       -60.9317
  26   1.0000      -2.239116       -60.9295
  27   1.0000      -2.238642       -60.9165
  28   1.0000      -2.237585       -60.8878
  29   1.0000      -2.237507       -60.8857
  30   1.0000      -2.236619       -60.8615
  31   1.0000      -2.232423       -60.7473
  32   1.0000      -2.231781       -60.7298
  33   1.0000      -2.230991       -60.7084
  34   1.0000      -2.230484       -60.6946
  35   1.0000      -2.230261       -60.6885
  36   1.0000      -2.230125       -60.6848
  37   1.0000      -2.229544       -60.6690
  38   1.0000      -2.229285       -60.6619
  39   1.0000      -2.228383       -60.6374
  40   1.0000      -2.228250       -60.6338
  41   1.0000      -2.227540       -60.6144
  42   1.0000      -2.226414       -60.5838
  43   1.0000      -2.224923       -60.5432
  44   1.0000      -2.223598       -60.5072
  45   1.0000      -2.223483       -60.5041
  46   1.0000      -1.995233       -54.2931
  47   1.0000      -1.988719       -54.1158
  48   1.0000      -1.976114       -53.7728
  49   1.0000      -0.408319       -11.1109
  50   1.0000      -0.373147       -10.1538
  51   1.0000      -0.368105       -10.0166
  52   1.0000      -0.365445        -9.9443
  53   1.0000      -0.362283        -9.8582
  54   1.0000      -0.357670        -9.7327
  55   1.0000      -0.356692        -9.7061
  56   1.0000      -0.345462        -9.4005
  57   1.0000      -0.342047        -9.3076
  58   1.0000      -0.340251        -9.2587
  59   1.0000      -0.337352        -9.1798
  60   1.0000      -0.335123        -9.1192
  61   1.0000      -0.331388        -9.0175
  62   1.0000      -0.329413        -8.9638
  63   1.0000      -0.326415        -8.8822
  64   1.0000      -0.320456        -8.7201
  65   1.0000      -0.318198        -8.6586
  66   1.0000      -0.315136        -8.5753
  67   1.0000      -0.311537        -8.4774
  68   1.0000      -0.310019        -8.4360
  69   1.0000      -0.306096        -8.3293
  70   1.0000      -0.300362        -8.1733
  71   1.0000      -0.299406        -8.1473
  72   1.0000      -0.299153        -8.1404
  73   1.0000      -0.298034        -8.1099
  74   1.0000      -0.290606        -7.9078
  75   1.0000      -0.287310        -7.8181
  76   1.0000      -0.286820        -7.8048
  77   1.0000      -0.282602        -7.6900
  78   1.0000      -0.281642        -7.6639
  79   1.0000      -0.280489        -7.6325
  80   1.0000      -0.279455        -7.6043
  81   1.0000      -0.276161        -7.5147
  82   1.0000      -0.274716        -7.4754
  83   1.0000      -0.273089        -7.4311
  84   1.0000      -0.270934        -7.3725
  85   1.0000      -0.269919        -7.3449
  86   1.0000      -0.268021        -7.2932
  87   1.0000      -0.266176        -7.2430
  88   1.0000      -0.265114        -7.2141
  89   1.0000      -0.263458        -7.1691
  90   1.0000      -0.261427        -7.1138
  91   1.0000      -0.257518        -7.0074
  92   1.0000      -0.256864        -6.9896
  93   1.0000      -0.254741        -6.9318
  94   1.0000      -0.253570        -6.9000
  95   1.0000      -0.251764        -6.8508
  96   1.0000      -0.250674        -6.8212
  97   1.0000      -0.247570        -6.7367
  98   1.0000      -0.245734        -6.6868
  99   1.0000      -0.241808        -6.5799
 100   1.0000      -0.240329        -6.5397
 101   1.0000      -0.238057        -6.4779
 102   1.0000      -0.235029        -6.3955
 103   1.0000      -0.232695        -6.3320
 104   1.0000      -0.228270        -6.2115
 105   1.0000      -0.226716        -6.1693
 106   1.0000      -0.220812        -6.0086
 107   1.0000      -0.213902        -5.8206
 108   1.0000      -0.204891        -5.5754
 109   0.0000      -0.179311        -4.8793
 110   0.0000      -0.171360        -4.6630
 111   0.0000      -0.131529        -3.5791
 112   0.0000      -0.129041        -3.5114
 113   0.0000      -0.123491        -3.3604

                 SPIN DOWN ORBITALS
  NO   OCC          E(Eh)            E(eV)
   0   1.0000    -234.187844     -6372.5752
   1   1.0000     -26.823562      -729.9062
   2   1.0000     -22.990163      -625.5941
   3   1.0000     -22.988077      -625.5374
   4   1.0000     -22.982651      -625.3897
   5   1.0000      -4.031700      -109.7081
   6   1.0000      -4.030167      -109.6664
   7   1.0000      -4.023614      -109.4881
   8   1.0000      -4.022539      -109.4589
   9   1.0000      -4.022171      -109.4488
  10   1.0000      -4.021193      -109.4222
  11   1.0000      -4.017682      -109.3267
  12   1.0000      -4.016130      -109.2844
  13   1.0000      -4.015958      -109.2798
  14   1.0000      -4.014521      -109.2407
  15   1.0000      -2.940808       -80.0235
  16   1.0000      -2.249304       -61.2067
  17   1.0000      -2.247633       -61.1612
  18   1.0000      -2.244224       -61.0684
  19   1.0000      -2.242476       -61.0209
  20   1.0000      -2.241180       -60.9856
  21   1.0000      -2.240981       -60.9802
  22   1.0000      -2.240768       -60.9744
  23   1.0000      -2.239190       -60.9315
  24   1.0000      -2.239064       -60.9280
  25   1.0000      -2.238518       -60.9132
  26   1.0000      -2.237970       -60.8983
  27   1.0000      -2.237439       -60.8838
  28   1.0000      -2.236612       -60.8613
  29   1.0000      -2.236019       -60.8452
  30   1.0000      -2.235388       -60.8280
  31   1.0000      -2.232264       -60.7430
  32   1.0000      -2.231152       -60.7127
  33   1.0000      -2.230607       -60.6979
  34   1.0000      -2.230097       -60.6840
  35   1.0000      -2.229808       -60.6762
  36   1.0000      -2.229580       -60.6700
  37   1.0000      -2.229168       -60.6588
  38   1.0000      -2.228768       -60.6479
  39   1.0000      -2.228234       -60.6333
  40   1.0000      -2.227609       -60.6163
  41   1.0000      -2.227122       -60.6031
  42   1.0000      -2.226705       -60.5917
  43   1.0000      -2.224802       -60.5399
  44   1.0000      -2.223963       -60.5171
  45   1.0000      -2.223873       -60.5147
  46   1.0000      -1.851567       -50.3837
  47   1.0000      -1.849630       -50.3310
  48   1.0000      -1.837487       -50.0006
  49   1.0000      -0.402500       -10.9526
  50   1.0000      -0.371993       -10.1224
  51   1.0000      -0.365918        -9.9571
  52   1.0000      -0.363976        -9.9043
  53   1.0000      -0.357084        -9.7167
  54   1.0000      -0.354251        -9.6397
  55   1.0000      -0.352804        -9.6003
  56   1.0000      -0.342359        -9.3160
  57   1.0000      -0.340195        -9.2572
  58   1.0000      -0.335970        -9.1422
  59   1.0000      -0.334573        -9.1042
  60   1.0000      -0.332981        -9.0609
  61   1.0000      -0.330225        -8.9859
  62   1.0000      -0.323738        -8.8094
  63   1.0000      -0.322679        -8.7805
  64   1.0000      -0.318998        -8.6804
  65   1.0000      -0.315207        -8.5772
  66   1.0000      -0.313122        -8.5205
  67   1.0000      -0.309028        -8.4091
  68   1.0000      -0.307223        -8.3600
  69   1.0000      -0.303150        -8.2491
  70   1.0000      -0.298697        -8.1280
  71   1.0000      -0.297906        -8.1064
  72   1.0000      -0.295896        -8.0517
  73   1.0000      -0.293793        -7.9945
  74   1.0000      -0.289240        -7.8706
  75   1.0000      -0.287455        -7.8220
  76   1.0000      -0.284638        -7.7454
  77   1.0000      -0.282632        -7.6908
  78   1.0000      -0.280367        -7.6292
  79   1.0000      -0.279423        -7.6035
  80   1.0000      -0.277539        -7.5522
  81   1.0000      -0.275568        -7.4986
  82   1.0000      -0.274671        -7.4742
  83   1.0000      -0.272948        -7.4273
  84   1.0000      -0.271025        -7.3750
  85   1.0000      -0.269702        -7.3390
  86   1.0000      -0.268180        -7.2976
  87   1.0000      -0.265712        -7.2304
  88   1.0000      -0.265190        -7.2162
  89   1.0000      -0.263597        -7.1728
  90   1.0000      -0.261497        -7.1157
  91   1.0000      -0.257285        -7.0011
  92   1.0000      -0.256940        -6.9917
  93   1.0000      -0.254718        -6.9312
  94   1.0000      -0.252376        -6.8675
  95   1.0000      -0.251340        -6.8393
  96   1.0000      -0.250924        -6.8280
  97   1.0000      -0.246890        -6.7182
  98   1.0000      -0.245956        -6.6928
  99   1.0000      -0.242088        -6.5876
 100   1.0000      -0.237495        -6.4626
 101   1.0000      -0.233666        -6.3584
 102   1.0000      -0.226584        -6.1657
 103   1.0000      -0.213394        -5.8067
 104   1.0000      -0.198083        -5.3901
 105   1.0000      -0.146265        -3.9801
 106   0.0000      -0.191194        -5.2027
 107   0.0000      -0.139418        -3.7938
 108   0.0000      -0.130225        -3.5436
 109   0.0000      -0.126252        -3.4355
 110   0.0000      -0.122835        -3.3425

MULLIKEN ATOMIC CHARGES AND SPIN POPULATIONS
--------------------------------------------
   0 Au:    0.096705   -0.049747
   1 Au:   -0.002533   -0.061578
   2 Au:    0.181975   -0.035551
   3 Au:    0.294235   -0.002672
   4 Au:    0.342187   -0.045719
   5 Au:    0.059280   -0.181641
   6 Au:    0.227590   -0.001890
   7 Au:    0.197576   -0.131449
   8 Au:    0.098514   -0.179242
   9 Au:    0.201783   -0.001767
  10 Mn:   -1.697312    3.691255
Sum of atomic charges         :    0.0000000

LOEWDIN ATOMIC CHARGES AND SPIN POPULATIONS
-------------------------------------------
   0 Au:   -0.035626   -0.016562
   1 Au:    0.008515   -0.053751
   2 Au:    0.126679   -0.074089
   3 Au:    0.148746   -0.026370
   4 Au:    0.071840   -0.078952
   5 Au:   -0.033889   -0.103169
   6 Au:    0.042917   -0.047485
   7 Au:    0.030726   -0.097130
   8 Au:    0.012338   -0.106639
   9 Au:    0.085462   -0.031974
  10 Mn:   -0.457708    3.636119

  Mayer bond orders larger than 0.100000
B(  0-Au,  1-Au) :   0.1884 B(  0-Au,  2-Au) :   0.3126 B(  0-Au,  3-Au) :   0.2314
B(  0-Au,  4-Au) :   0.4455 B(  0-Au,  5-Au) :   0.1213 B(  0-Au, 10-Mn) :   0.4658
B(  1-Au,  4-Au) :   0.3044 B(  1-Au,  5-Au) :   0.1642 B(  1-Au,  8-Au) :   0.3427
B(  1-Au, 10-Mn) :   0.6133 B(  2-Au,  6-Au) :   0.1027 B(  2-Au,  7-Au) :   0.3127
B(  2-Au, 10-Mn) :   0.6209 B(  3-Au,  5-Au) :   0.1816 B(  3-Au,  8-Au) :   0.1229
B(  3-Au, 10-Mn) :   0.6314 B(  4-Au,  5-Au) :   0.3432 B(  4-Au,  6-Au) :   0.1058
B(  4-Au, 10-Mn) :   0.1082 B(  5-Au,  9-Au) :   0.3773 B(  5-Au, 10-Mn) :   0.5654
B(  6-Au,  7-Au) :   0.4184 B(  6-Au,  8-Au) :   0.2750 B(  6-Au,  9-Au) :   0.3267
B(  6-Au, 10-Mn) :   0.1873 B(  7-Au,  8-Au) :   0.1133 B(  7-Au, 10-Mn) :   0.5234
B(  8-Au,  9-Au) :   0.1202 B(  8-Au, 10-Mn) :   0.6611 B(  9-Au, 10-Mn) :   0.6044

FINAL SINGLE POINT ENERGY     -2508.978801205000

DIPOLE MOMENT
-------------
                                X             Y             Z
Electronic contribution:    -14.91707     -14.43639      -2.29030
Nuclear contribution   :     14.95069      14.53085       2.12157
                        -----------------------------------------
Total Dipole Moment    :      0.03363       0.09446      -0.16873
                        -----------------------------------------
Magnitude (a.u.)       :      0.19627
Magnitude (Debye)      :      0.49889

Rotational constants in cm-1:     0.002294     0.001428     0.001256
Rotational constants in MHz :    68.782754    42.796420    37.655536

                             ****ORCA TERMINATED NORMALLY****
TOTAL RUN TIME: 0 days 0 hours 13 minutes 18 seconds 537 msec
