                         Program Version 5.0.3 -  RELEASE  -
|  1> !R2SCAN def2-TZVP VERYSLOWCONV
|  2> !KDIIS
|  3> %scf
|  4>   AutoTRAHIter 200
|  5>   maxiter 400
|  6> end
|  7>
|  8> %pal nprocs 6 end
|  9>
| 10> *xyzfile 0 6 pbe.xyz
| 11>
| 12> $new_job
| 13>
| 14> !R2SCAN def2-TZVP VERYSLOWCONV
| 15> !KDIIS
| 16> %scf
| 17>   AutoTRAHIter 200
| 18>   maxiter 400
| 19> end
| 20>
| 21>
| 22> %pal nprocs 6 end
| 23>
| 24> *xyzfile 0 4 pbe.xyz
| 25>
| 26>
| 27>
| 28>
| 29>
| 30>                          ****END OF INPUT****
 Total Charge           Charge          ....    0
 Multiplicity           Mult            ....    6
 Number of Electrons    NEL             ....  215
FINAL SINGLE POINT ENERGY     -2509.420118099706

CARTESIAN COORDINATES (ANGSTROEM)
---------------------------------
  Au     7.784069    7.302346    4.443493
  Au     6.182142    6.181766    6.647033
  Au     9.961891    7.808561    5.948277
  Au     7.248241   10.079390    4.740316
  Au     5.211124    6.578112    4.078771
  Au     5.065098    8.728768    5.853425
  Au     7.700976    9.497693   10.213228
  Au     9.597351    8.590711    8.511293
  Au     7.116480    7.077112    8.943767
  Au     5.753729    9.709748    8.271275
  Mn     7.574908    8.556626    6.823666

 Multiplicity           Mult            ....    4
 Number of Electrons    NEL             ....  215
 Basis Dimension        Dim             ....  445

ORBITAL ENERGIES
----------------
                 SPIN UP ORBITALS
  NO   OCC          E(Eh)            E(eV)
   0   1.0000    -235.041257     -6395.7978
   1   1.0000     -27.222401      -740.7592
   2   1.0000     -23.270668      -633.2271
   3   1.0000     -23.268864      -633.1780
   4   1.0000     -23.268577      -633.1702
   5   1.0000      -4.118204      -112.0620
   6   1.0000      -4.117870      -112.0529
   7   1.0000      -4.114870      -111.9713
   8   1.0000      -4.113431      -111.9322
   9   1.0000      -4.111881      -111.8900
  10   1.0000      -4.111336      -111.8752
  11   1.0000      -4.109329      -111.8205
  12   1.0000      -4.106846      -111.7530
  13   1.0000      -4.104019      -111.6760
  14   1.0000      -4.103052      -111.6497
  15   1.0000      -3.241017       -88.1926
  16   1.0000      -2.308498       -62.8174
  17   1.0000      -2.308384       -62.8143
  18   1.0000      -2.306526       -62.7638
  19   1.0000      -2.304555       -62.7101
  20   1.0000      -2.303972       -62.6943
  21   1.0000      -2.303735       -62.6878
  22   1.0000      -2.303134       -62.6715
  23   1.0000      -2.302079       -62.6428
  24   1.0000      -2.301425       -62.6250
  25   1.0000      -2.300783       -62.6075
  26   1.0000      -2.299637       -62.5763
  27   1.0000      -2.299400       -62.5698
  28   1.0000      -2.298756       -62.5523
  29   1.0000      -2.298674       -62.5501
  30   1.0000      -2.297551       -62.5195
  31   1.0000      -2.296269       -62.4847
  32   1.0000      -2.294834       -62.4456
  33   1.0000      -2.294700       -62.4420
  34   1.0000      -2.294518       -62.4370
  35   1.0000      -2.293408       -62.4068
  36   1.0000      -2.291697       -62.3603
  37   1.0000      -2.291447       -62.3534
  38   1.0000      -2.291362       -62.3511
  39   1.0000      -2.291292       -62.3492
  40   1.0000      -2.289551       -62.3019
  41   1.0000      -2.289416       -62.2982
  42   1.0000      -2.288327       -62.2686
  43   1.0000      -2.286469       -62.2180
  44   1.0000      -2.286389       -62.2158
  45   1.0000      -2.285735       -62.1980
  46   1.0000      -2.100359       -57.1537
  47   1.0000      -2.096115       -57.0382
  48   1.0000      -2.095703       -57.0270
  49   1.0000      -0.415441       -11.3047
  50   1.0000      -0.381974       -10.3940
  51   1.0000      -0.378396       -10.2967
  52   1.0000      -0.374844       -10.2000
  53   1.0000      -0.371357       -10.1051
  54   1.0000      -0.367552       -10.0016
  55   1.0000      -0.363758        -9.8984
  56   1.0000      -0.358709        -9.7610
  57   1.0000      -0.352929        -9.6037
  58   1.0000      -0.350019        -9.5245
  59   1.0000      -0.347440        -9.4543
  60   1.0000      -0.345322        -9.3967
  61   1.0000      -0.341181        -9.2840
  62   1.0000      -0.338590        -9.2135
  63   1.0000      -0.335501        -9.1294
  64   1.0000      -0.329919        -8.9775
  65   1.0000      -0.325121        -8.8470
  66   1.0000      -0.323934        -8.8147
  67   1.0000      -0.320887        -8.7318
  68   1.0000      -0.317873        -8.6498
  69   1.0000      -0.313563        -8.5325
  70   1.0000      -0.310892        -8.4598
  71   1.0000      -0.309423        -8.4198
  72   1.0000      -0.307285        -8.3617
  73   1.0000      -0.305909        -8.3242
  74   1.0000      -0.299292        -8.1441
  75   1.0000      -0.296714        -8.0740
  76   1.0000      -0.294518        -8.0142
  77   1.0000      -0.291390        -7.9291
  78   1.0000      -0.290153        -7.8955
  79   1.0000      -0.288968        -7.8632
  80   1.0000      -0.284900        -7.7525
  81   1.0000      -0.283799        -7.7226
  82   1.0000      -0.281501        -7.6600
  83   1.0000      -0.279243        -7.5986
  84   1.0000      -0.278002        -7.5648
  85   1.0000      -0.277192        -7.5428
  86   1.0000      -0.275287        -7.4909
  87   1.0000      -0.273272        -7.4361
  88   1.0000      -0.272307        -7.4099
  89   1.0000      -0.270453        -7.3594
  90   1.0000      -0.268638        -7.3100
  91   1.0000      -0.267231        -7.2717
  92   1.0000      -0.265228        -7.2172
  93   1.0000      -0.263599        -7.1729
  94   1.0000      -0.263179        -7.1615
  95   1.0000      -0.261997        -7.1293
  96   1.0000      -0.258220        -7.0265
  97   1.0000      -0.257153        -6.9975
  98   1.0000      -0.256211        -6.9719
  99   1.0000      -0.254803        -6.9335
 100   1.0000      -0.252319        -6.8660
 101   1.0000      -0.250150        -6.8069
 102   1.0000      -0.247208        -6.7269
 103   1.0000      -0.243975        -6.6389
 104   1.0000      -0.240248        -6.5375
 105   1.0000      -0.238509        -6.4902
 106   1.0000      -0.231749        -6.3062
 107   1.0000      -0.222947        -6.0667
 108   1.0000      -0.208416        -5.6713
 109   0.0000      -0.177051        -4.8178
 110   0.0000      -0.166784        -4.5384
 111   0.0000      -0.128833        -3.5057
 112   0.0000      -0.122202        -3.3253
 113   0.0000      -0.118565        -3.2263

                 SPIN DOWN ORBITALS
  NO   OCC          E(Eh)            E(eV)
   0   1.0000    -235.040198     -6395.7689
   1   1.0000     -27.136669      -738.4263
   2   1.0000     -23.203954      -631.4117
   3   1.0000     -23.203883      -631.4098
   4   1.0000     -23.202886      -631.3826
   5   1.0000      -4.118822      -112.0788
   6   1.0000      -4.118057      -112.0580
   7   1.0000      -4.114840      -111.9705
   8   1.0000      -4.112909      -111.9180
   9   1.0000      -4.111120      -111.8693
  10   1.0000      -4.110953      -111.8647
  11   1.0000      -4.109408      -111.8227
  12   1.0000      -4.107535      -111.7717
  13   1.0000      -4.105144      -111.7066
  14   1.0000      -4.103166      -111.6528
  15   1.0000      -3.036473       -82.6266
  16   1.0000      -2.308726       -62.8236
  17   1.0000      -2.308603       -62.8203
  18   1.0000      -2.305885       -62.7463
  19   1.0000      -2.304457       -62.7075
  20   1.0000      -2.303316       -62.6764
  21   1.0000      -2.302999       -62.6678
  22   1.0000      -2.302455       -62.6530
  23   1.0000      -2.301778       -62.6346
  24   1.0000      -2.300393       -62.5969
  25   1.0000      -2.300204       -62.5917
  26   1.0000      -2.300130       -62.5897
  27   1.0000      -2.298935       -62.5572
  28   1.0000      -2.298404       -62.5427
  29   1.0000      -2.298071       -62.5337
  30   1.0000      -2.296650       -62.4950
  31   1.0000      -2.296520       -62.4915
  32   1.0000      -2.295343       -62.4595
  33   1.0000      -2.295085       -62.4524
  34   1.0000      -2.293578       -62.4114
  35   1.0000      -2.293033       -62.3966
  36   1.0000      -2.292501       -62.3821
  37   1.0000      -2.292444       -62.3806
  38   1.0000      -2.291882       -62.3653
  39   1.0000      -2.290864       -62.3376
  40   1.0000      -2.290620       -62.3309
  41   1.0000      -2.289999       -62.3141
  42   1.0000      -2.287823       -62.2548
  43   1.0000      -2.287200       -62.2379
  44   1.0000      -2.286660       -62.2232
  45   1.0000      -2.285946       -62.2038
  46   1.0000      -1.895425       -51.5771
  47   1.0000      -1.895213       -51.5714
  48   1.0000      -1.891876       -51.4806
  49   1.0000      -0.409599       -11.1458
  50   1.0000      -0.378969       -10.3123
  51   1.0000      -0.374424       -10.1886
  52   1.0000      -0.371064       -10.0972
  53   1.0000      -0.364927        -9.9302
  54   1.0000      -0.363703        -9.8969
  55   1.0000      -0.359980        -9.7955
  56   1.0000      -0.351252        -9.5581
  57   1.0000      -0.349211        -9.5025
  58   1.0000      -0.343738        -9.3536
  59   1.0000      -0.342103        -9.3091
  60   1.0000      -0.341226        -9.2852
  61   1.0000      -0.339321        -9.2334
  62   1.0000      -0.332594        -9.0503
  63   1.0000      -0.332366        -9.0441
  64   1.0000      -0.327158        -8.9024
  65   1.0000      -0.322014        -8.7625
  66   1.0000      -0.321843        -8.7578
  67   1.0000      -0.317218        -8.6319
  68   1.0000      -0.315276        -8.5791
  69   1.0000      -0.312411        -8.5011
  70   1.0000      -0.307907        -8.3786
  71   1.0000      -0.305179        -8.3043
  72   1.0000      -0.303370        -8.2551
  73   1.0000      -0.301153        -8.1948
  74   1.0000      -0.296864        -8.0781
  75   1.0000      -0.295798        -8.0491
  76   1.0000      -0.291903        -7.9431
  77   1.0000      -0.291115        -7.9216
  78   1.0000      -0.287751        -7.8301
  79   1.0000      -0.286347        -7.7919
  80   1.0000      -0.284682        -7.7466
  81   1.0000      -0.283654        -7.7186
  82   1.0000      -0.281958        -7.6725
  83   1.0000      -0.279319        -7.6007
  84   1.0000      -0.278889        -7.5890
  85   1.0000      -0.276813        -7.5325
  86   1.0000      -0.275795        -7.5048
  87   1.0000      -0.273748        -7.4491
  88   1.0000      -0.273222        -7.4347
  89   1.0000      -0.270323        -7.3559
  90   1.0000      -0.269419        -7.3313
  91   1.0000      -0.265664        -7.2291
  92   1.0000      -0.263976        -7.1831
  93   1.0000      -0.261521        -7.1163
  94   1.0000      -0.260076        -7.0770
  95   1.0000      -0.257916        -7.0182
  96   1.0000      -0.257557        -7.0085
  97   1.0000      -0.254333        -6.9207
  98   1.0000      -0.252398        -6.8681
  99   1.0000      -0.249375        -6.7858
 100   1.0000      -0.243389        -6.6230
 101   1.0000      -0.240553        -6.5458
 102   1.0000      -0.230544        -6.2734
 103   1.0000      -0.215614        -5.8672
 104   1.0000      -0.199560        -5.4303
 105   1.0000      -0.192647        -5.2422
 106   0.0000      -0.139050        -3.7838
 107   0.0000      -0.134679        -3.6648
 108   0.0000      -0.123018        -3.3475
 109   0.0000      -0.114733        -3.1220
 110   0.0000      -0.107944        -2.9373

MULLIKEN ATOMIC CHARGES AND SPIN POPULATIONS
--------------------------------------------
   0 Au:    0.074242   -0.208374
   1 Au:    0.021257    0.030949
   2 Au:    0.166659   -0.102878
   3 Au:    0.221918   -0.247400
   4 Au:    0.287169   -0.015609
   5 Au:    0.099229   -0.158171
   6 Au:    0.193065   -0.090707
   7 Au:    0.129617   -0.200548
   8 Au:    0.139414   -0.111198
   9 Au:    0.122100   -0.157250
  10 Mn:   -1.454670    4.261187
Sum of atomic charges         :    0.0000000

LOEWDIN ATOMIC CHARGES AND SPIN POPULATIONS
-------------------------------------------
   0 Au:   -0.061446   -0.130890
   1 Au:    0.006207   -0.017013
   2 Au:    0.109081   -0.155409
   3 Au:    0.122010   -0.182340
   4 Au:    0.081968   -0.042690
   5 Au:   -0.030483   -0.124243
   6 Au:    0.035859   -0.117780
   7 Au:    0.022857   -0.122538
   8 Au:    0.016402   -0.077188
   9 Au:    0.061114   -0.105869
  10 Mn:   -0.363571    4.075960

  Mayer bond orders larger than 0.100000
B(  0-Au,  1-Au) :   0.1567 B(  0-Au,  2-Au) :   0.3490 B(  0-Au,  3-Au) :   0.1481
B(  0-Au,  4-Au) :   0.4443 B(  0-Au, 10-Mn) :   0.4480 B(  1-Au,  4-Au) :   0.3212
B(  1-Au,  5-Au) :   0.1878 B(  1-Au,  8-Au) :   0.5138 B(  1-Au, 10-Mn) :   0.4221
B(  2-Au,  7-Au) :   0.2683 B(  2-Au, 10-Mn) :   0.6279 B(  3-Au,  5-Au) :   0.2099
B(  3-Au, 10-Mn) :   0.6594 B(  4-Au,  5-Au) :   0.3119 B(  4-Au,  6-Au) :   0.1054
B(  5-Au,  9-Au) :   0.3632 B(  5-Au, 10-Mn) :   0.5113 B(  6-Au,  7-Au) :   0.3862
B(  6-Au,  8-Au) :   0.2548 B(  6-Au,  9-Au) :   0.3209 B(  6-Au, 10-Mn) :   0.1380
B(  7-Au, 10-Mn) :   0.5220 B(  8-Au, 10-Mn) :   0.6091 B(  9-Au, 10-Mn) :   0.5997

FINAL SINGLE POINT ENERGY     -2509.428449059003

DIPOLE MOMENT
-------------
                                X             Y             Z
Electronic contribution:    -15.01724     -14.43653      -2.23949
Nuclear contribution   :     14.95069      14.53085       2.12157
                        -----------------------------------------
Total Dipole Moment    :     -0.06655       0.09432      -0.11792
                        -----------------------------------------
Magnitude (a.u.)       :      0.16501
Magnitude (Debye)      :      0.41943

Rotational constants in cm-1:     0.002294     0.001428     0.001256
Rotational constants in MHz :    68.782754    42.796420    37.655536

                             ****ORCA TERMINATED NORMALLY****
TOTAL RUN TIME: 0 days 0 hours 22 minutes 54 seconds 345 msec
