                         Program Version 5.0.3 -  RELEASE  -
|  1> %pal nprocs 1 end
|  2>
|  3> !PBE def2-TZVP OPT UNO
|  4> !SLOWCONV KDIIS
|  5>
|  6> %geom maxiter 300 end
|  7>
|  8> *xyzfile 0 5 5.xyz                           ****END OF INPUT****
 Total Charge           Charge          ....    0
 Multiplicity           Mult            ....    5
 Number of Electrons    NEL             ....  290
FINAL SINGLE POINT ENERGY     -2945.804839750206
FINAL SINGLE POINT ENERGY     -2945.809994560637
FINAL SINGLE POINT ENERGY     -2945.813851489024
FINAL SINGLE POINT ENERGY     -2945.816512206517
FINAL SINGLE POINT ENERGY     -2945.818414765977
FINAL SINGLE POINT ENERGY     -2945.819671046464
FINAL SINGLE POINT ENERGY     -2945.820470739495
FINAL SINGLE POINT ENERGY     -2945.820849554188
FINAL SINGLE POINT ENERGY     -2945.820943304867
FINAL SINGLE POINT ENERGY     -2945.821002737678
FINAL SINGLE POINT ENERGY     -2945.821048904405
FINAL SINGLE POINT ENERGY     -2945.821072270740
FINAL SINGLE POINT ENERGY     -2945.821082966789
FINAL SINGLE POINT ENERGY     -2945.821087835731
                    ***********************HURRAY********************

CARTESIAN COORDINATES (ANGSTROEM)
---------------------------------
  Au     8.938456    5.033494    6.378415
  Au    10.006233    7.315248    7.501598
  Au     8.685938    8.396027    9.670378
  Au     7.794444    5.823366    8.731261
  Au     6.364709    7.188705   10.656892
  Au     4.792969    6.224404    8.620738
  Au     5.997251   10.621437    6.852013
  Au     8.543826    9.602872    7.007165
  Au     4.074641    8.600952    7.057676
  Au     8.965920    7.521633    4.956189
  Au     6.852690    5.792520    4.502756
  Au     6.355905    8.350521    5.323386
  Au     4.491162    6.140071    5.880394
  Au     6.312901    4.350065    6.920834
  Cr     6.516346    8.219493    8.102522

 Multiplicity           Mult            ....    5
 Number of Electrons    NEL             ....  290
 Basis Dimension        Dim             ....  605

ORBITAL ENERGIES
----------------
                 SPIN UP ORBITALS
  NO   OCC          E(Eh)            E(eV)
   0   1.0000    -214.485438     -5836.4455
   1   1.0000     -24.284066      -660.8030
   2   1.0000     -20.649211      -561.8936
   3   1.0000     -20.648944      -561.8863
   4   1.0000     -20.642934      -561.7228
   5   1.0000      -4.037347      -109.8618
   6   1.0000      -4.037317      -109.8610
   7   1.0000      -4.031493      -109.7025
   8   1.0000      -4.031474      -109.7020
   9   1.0000      -4.031379      -109.6994
  10   1.0000      -4.031376      -109.6993
  11   1.0000      -4.028671      -109.6257
  12   1.0000      -4.028648      -109.6251
  13   1.0000      -4.022125      -109.4476
  14   1.0000      -4.022042      -109.4453
  15   1.0000      -4.020687      -109.4084
  16   1.0000      -4.020609      -109.4063
  17   1.0000      -4.017566      -109.3235
  18   1.0000      -4.017526      -109.3224
  19   1.0000      -2.794170       -76.0332
  20   1.0000      -2.254858       -61.3578
  21   1.0000      -2.254836       -61.3572
  22   1.0000      -2.249003       -61.1985
  23   1.0000      -2.248952       -61.1971
  24   1.0000      -2.248326       -61.1801
  25   1.0000      -2.248294       -61.1792
  26   1.0000      -2.247793       -61.1656
  27   1.0000      -2.247697       -61.1629
  28   1.0000      -2.247448       -61.1562
  29   1.0000      -2.247326       -61.1529
  30   1.0000      -2.245405       -61.1006
  31   1.0000      -2.245288       -61.0974
  32   1.0000      -2.244624       -61.0793
  33   1.0000      -2.244051       -61.0637
  34   1.0000      -2.243977       -61.0617
  35   1.0000      -2.243483       -61.0483
  36   1.0000      -2.241240       -60.9872
  37   1.0000      -2.241210       -60.9864
  38   1.0000      -2.240496       -60.9670
  39   1.0000      -2.240321       -60.9622
  40   1.0000      -2.239623       -60.9432
  41   1.0000      -2.239378       -60.9366
  42   1.0000      -2.238870       -60.9227
  43   1.0000      -2.238844       -60.9220
  44   1.0000      -2.238575       -60.9147
  45   1.0000      -2.238287       -60.9069
  46   1.0000      -2.236488       -60.8579
  47   1.0000      -2.236275       -60.8521
  48   1.0000      -2.235819       -60.8397
  49   1.0000      -2.235640       -60.8348
  50   1.0000      -2.235128       -60.8209
  51   1.0000      -2.234512       -60.8042
  52   1.0000      -2.232367       -60.7458
  53   1.0000      -2.231981       -60.7353
  54   1.0000      -2.231836       -60.7313
  55   1.0000      -2.231136       -60.7123
  56   1.0000      -2.231053       -60.7100
  57   1.0000      -2.230737       -60.7015
  58   1.0000      -2.229519       -60.6683
  59   1.0000      -2.228632       -60.6442
  60   1.0000      -2.227090       -60.6022
  61   1.0000      -2.226968       -60.5989
  62   1.0000      -1.787619       -48.6436
  63   1.0000      -1.786611       -48.6162
  64   1.0000      -1.778722       -48.4015
  65   1.0000      -0.421722       -11.4756
  66   1.0000      -0.393662       -10.7121
  67   1.0000      -0.381042       -10.3687
  68   1.0000      -0.378658       -10.3038
  69   1.0000      -0.374187       -10.1821
  70   1.0000      -0.369413       -10.0522
  71   1.0000      -0.363136        -9.8814
  72   1.0000      -0.359632        -9.7861
  73   1.0000      -0.356725        -9.7070
  74   1.0000      -0.356173        -9.6920
  75   1.0000      -0.354529        -9.6472
  76   1.0000      -0.352758        -9.5990
  77   1.0000      -0.351962        -9.5774
  78   1.0000      -0.349532        -9.5113
  79   1.0000      -0.347480        -9.4554
  80   1.0000      -0.346229        -9.4214
  81   1.0000      -0.344325        -9.3696
  82   1.0000      -0.339669        -9.2429
  83   1.0000      -0.338928        -9.2227
  84   1.0000      -0.336864        -9.1665
  85   1.0000      -0.336602        -9.1594
  86   1.0000      -0.333180        -9.0663
  87   1.0000      -0.332696        -9.0531
  88   1.0000      -0.328536        -8.9399
  89   1.0000      -0.326665        -8.8890
  90   1.0000      -0.324399        -8.8274
  91   1.0000      -0.322399        -8.7729
  92   1.0000      -0.321130        -8.7384
  93   1.0000      -0.316309        -8.6072
  94   1.0000      -0.314191        -8.5496
  95   1.0000      -0.312731        -8.5098
  96   1.0000      -0.312371        -8.5000
  97   1.0000      -0.309209        -8.4140
  98   1.0000      -0.304826        -8.2947
  99   1.0000      -0.301115        -8.1938
 100   1.0000      -0.299571        -8.1517
 101   1.0000      -0.296965        -8.0808
 102   1.0000      -0.294114        -8.0032
 103   1.0000      -0.293502        -7.9866
 104   1.0000      -0.291840        -7.9414
 105   1.0000      -0.289536        -7.8787
 106   1.0000      -0.289186        -7.8692
 107   1.0000      -0.285377        -7.7655
 108   1.0000      -0.282599        -7.6899
 109   1.0000      -0.282022        -7.6742
 110   1.0000      -0.281084        -7.6487
 111   1.0000      -0.278366        -7.5747
 112   1.0000      -0.277183        -7.5425
 113   1.0000      -0.275457        -7.4956
 114   1.0000      -0.275257        -7.4901
 115   1.0000      -0.272590        -7.4176
 116   1.0000      -0.271516        -7.3883
 117   1.0000      -0.268336        -7.3018
 118   1.0000      -0.266282        -7.2459
 119   1.0000      -0.264897        -7.2082
 120   1.0000      -0.262664        -7.1474
 121   1.0000      -0.261158        -7.1065
 122   1.0000      -0.260054        -7.0764
 123   1.0000      -0.258613        -7.0372
 124   1.0000      -0.257196        -6.9986
 125   1.0000      -0.256474        -6.9790
 126   1.0000      -0.256051        -6.9675
 127   1.0000      -0.255558        -6.9541
 128   1.0000      -0.250796        -6.8245
 129   1.0000      -0.249970        -6.8020
 130   1.0000      -0.248720        -6.7680
 131   1.0000      -0.248521        -6.7626
 132   1.0000      -0.245546        -6.6816
 133   1.0000      -0.242802        -6.6070
 134   1.0000      -0.242331        -6.5942
 135   1.0000      -0.240334        -6.5398
 136   1.0000      -0.239657        -6.5214
 137   1.0000      -0.239092        -6.5060
 138   1.0000      -0.233638        -6.3576
 139   1.0000      -0.220933        -6.0119
 140   1.0000      -0.217686        -5.9235
 141   1.0000      -0.214807        -5.8452
 142   1.0000      -0.212235        -5.7752
 143   1.0000      -0.208414        -5.6712
 144   1.0000      -0.200343        -5.4516
 145   1.0000      -0.194968        -5.3054
 146   1.0000      -0.192644        -5.2421
 147   0.0000      -0.177707        -4.8357
 148   0.0000      -0.171552        -4.6682
 149   0.0000      -0.141960        -3.8629
 150   0.0000      -0.128280        -3.4907
 151   0.0000      -0.126425        -3.4402

                 SPIN DOWN ORBITALS
  NO   OCC          E(Eh)            E(eV)
   0   1.0000    -214.484982     -5836.4331
   1   1.0000     -24.234483      -659.4538
   2   1.0000     -20.613663      -560.9263
   3   1.0000     -20.613266      -560.9155
   4   1.0000     -20.600534      -560.5690
   5   1.0000      -4.036378      -109.8354
   6   1.0000      -4.036349      -109.8346
   7   1.0000      -4.030950      -109.6877
   8   1.0000      -4.030932      -109.6872
   9   1.0000      -4.030784      -109.6832
  10   1.0000      -4.030782      -109.6831
  11   1.0000      -4.027862      -109.6037
  12   1.0000      -4.027839      -109.6031
  13   1.0000      -4.022005      -109.4443
  14   1.0000      -4.021921      -109.4420
  15   1.0000      -4.020573      -109.4054
  16   1.0000      -4.020496      -109.4033
  17   1.0000      -4.017530      -109.3225
  18   1.0000      -4.017490      -109.3214
  19   1.0000      -2.659576       -72.3707
  20   1.0000      -2.253675       -61.3256
  21   1.0000      -2.253655       -61.3251
  22   1.0000      -2.248421       -61.1826
  23   1.0000      -2.248376       -61.1814
  24   1.0000      -2.247182       -61.1489
  25   1.0000      -2.247108       -61.1469
  26   1.0000      -2.246827       -61.1393
  27   1.0000      -2.246783       -61.1381
  28   1.0000      -2.246608       -61.1333
  29   1.0000      -2.246570       -61.1323
  30   1.0000      -2.244763       -61.0831
  31   1.0000      -2.244727       -61.0821
  32   1.0000      -2.243691       -61.0539
  33   1.0000      -2.243420       -61.0466
  34   1.0000      -2.243137       -61.0389
  35   1.0000      -2.242842       -61.0308
  36   1.0000      -2.240719       -60.9731
  37   1.0000      -2.240690       -60.9723
  38   1.0000      -2.239983       -60.9530
  39   1.0000      -2.239825       -60.9487
  40   1.0000      -2.238916       -60.9240
  41   1.0000      -2.238677       -60.9175
  42   1.0000      -2.238387       -60.9096
  43   1.0000      -2.238108       -60.9020
  44   1.0000      -2.238087       -60.9014
  45   1.0000      -2.238039       -60.9001
  46   1.0000      -2.236388       -60.8552
  47   1.0000      -2.236181       -60.8496
  48   1.0000      -2.235731       -60.8373
  49   1.0000      -2.235536       -60.8320
  50   1.0000      -2.235015       -60.8179
  51   1.0000      -2.234416       -60.8016
  52   1.0000      -2.232288       -60.7437
  53   1.0000      -2.231846       -60.7316
  54   1.0000      -2.231763       -60.7294
  55   1.0000      -2.231100       -60.7113
  56   1.0000      -2.231016       -60.7090
  57   1.0000      -2.230637       -60.6987
  58   1.0000      -2.229376       -60.6644
  59   1.0000      -2.228441       -60.6390
  60   1.0000      -2.227087       -60.6021
  61   1.0000      -2.226952       -60.5984
  62   1.0000      -1.662212       -45.2311
  63   1.0000      -1.661146       -45.2021
  64   1.0000      -1.631132       -44.3854
  65   1.0000      -0.416064       -11.3217
  66   1.0000      -0.392146       -10.6708
  67   1.0000      -0.377436       -10.2705
  68   1.0000      -0.376596       -10.2477
  69   1.0000      -0.371461       -10.1080
  70   1.0000      -0.366443        -9.9714
  71   1.0000      -0.362701        -9.8696
  72   1.0000      -0.358491        -9.7550
  73   1.0000      -0.355546        -9.6749
  74   1.0000      -0.354334        -9.6419
  75   1.0000      -0.353085        -9.6079
  76   1.0000      -0.352155        -9.5826
  77   1.0000      -0.350821        -9.5463
  78   1.0000      -0.348392        -9.4802
  79   1.0000      -0.346997        -9.4423
  80   1.0000      -0.344498        -9.3743
  81   1.0000      -0.342936        -9.3318
  82   1.0000      -0.339359        -9.2344
  83   1.0000      -0.336659        -9.1610
  84   1.0000      -0.335832        -9.1385
  85   1.0000      -0.335654        -9.1336
  86   1.0000      -0.332002        -9.0342
  87   1.0000      -0.330193        -8.9850
  88   1.0000      -0.327445        -8.9102
  89   1.0000      -0.324394        -8.8272
  90   1.0000      -0.323432        -8.8010
  91   1.0000      -0.321461        -8.7474
  92   1.0000      -0.318165        -8.6577
  93   1.0000      -0.315706        -8.5908
  94   1.0000      -0.313216        -8.5230
  95   1.0000      -0.311694        -8.4816
  96   1.0000      -0.309966        -8.4346
  97   1.0000      -0.303613        -8.2617
  98   1.0000      -0.303563        -8.2604
  99   1.0000      -0.300238        -8.1699
 100   1.0000      -0.297570        -8.0973
 101   1.0000      -0.296113        -8.0576
 102   1.0000      -0.292871        -7.9694
 103   1.0000      -0.291461        -7.9311
 104   1.0000      -0.288782        -7.8581
 105   1.0000      -0.287914        -7.8345
 106   1.0000      -0.287228        -7.8159
 107   1.0000      -0.284265        -7.7353
 108   1.0000      -0.282353        -7.6832
 109   1.0000      -0.281688        -7.6651
 110   1.0000      -0.280359        -7.6289
 111   1.0000      -0.276957        -7.5364
 112   1.0000      -0.276366        -7.5203
 113   1.0000      -0.274973        -7.4824
 114   1.0000      -0.274923        -7.4810
 115   1.0000      -0.271929        -7.3996
 116   1.0000      -0.270863        -7.3705
 117   1.0000      -0.267586        -7.2814
 118   1.0000      -0.265787        -7.2324
 119   1.0000      -0.263711        -7.1759
 120   1.0000      -0.262437        -7.1413
 121   1.0000      -0.260645        -7.0925
 122   1.0000      -0.259531        -7.0622
 123   1.0000      -0.258124        -7.0239
 124   1.0000      -0.256830        -6.9887
 125   1.0000      -0.256063        -6.9678
 126   1.0000      -0.255649        -6.9566
 127   1.0000      -0.255313        -6.9474
 128   1.0000      -0.250467        -6.8156
 129   1.0000      -0.248869        -6.7721
 130   1.0000      -0.248314        -6.7570
 131   1.0000      -0.248184        -6.7534
 132   1.0000      -0.245050        -6.6682
 133   1.0000      -0.242322        -6.5939
 134   1.0000      -0.241603        -6.5743
 135   1.0000      -0.240024        -6.5314
 136   1.0000      -0.238939        -6.5019
 137   1.0000      -0.238833        -6.4990
 138   1.0000      -0.233161        -6.3446
 139   1.0000      -0.214418        -5.8346
 140   1.0000      -0.213883        -5.8201
 141   1.0000      -0.205522        -5.5925
 142   1.0000      -0.204781        -5.5724
 143   0.0000      -0.172919        -4.7054
 144   0.0000      -0.141766        -3.8576
 145   0.0000      -0.137278        -3.7355
 146   0.0000      -0.135083        -3.6758
 147   0.0000      -0.123767        -3.3679

MULLIKEN ATOMIC CHARGES AND SPIN POPULATIONS
--------------------------------------------
   0 Au:    0.158906    0.063728
   1 Au:    0.153331    0.023634
   2 Au:    0.445829   -0.004908
   3 Au:   -0.282994    0.027132
   4 Au:    0.468044    0.057898
   5 Au:    0.146091   -0.048490
   6 Au:    0.467954    0.057847
   7 Au:    0.146690   -0.048100
   8 Au:    0.446362   -0.004836
   9 Au:    0.100680   -0.000567
  10 Au:    0.156604    0.062979
  11 Au:   -0.280528    0.027345
  12 Au:    0.153649    0.023657
  13 Au:    0.101114   -0.000121
  14 Cr:   -2.381733    3.762802
Sum of atomic charges         :   -0.0000000

LOEWDIN ATOMIC CHARGES AND SPIN POPULATIONS
-------------------------------------------
   0 Au:    0.022211    0.047096
   1 Au:    0.014236   -0.000957
   2 Au:    0.127011   -0.000025
   3 Au:   -0.008985    0.028524
   4 Au:    0.188017    0.031975
   5 Au:    0.054317   -0.006934
   6 Au:    0.187894    0.031932
   7 Au:    0.054109   -0.006961
   8 Au:    0.127366   -0.000103
   9 Au:    0.030125    0.008866
  10 Au:    0.021894    0.046733
  11 Au:   -0.008721    0.028504
  12 Au:    0.013893   -0.001023
  13 Au:    0.030090    0.008985
  14 Cr:   -0.853457    3.783387

  Mayer bond orders larger than 0.100000
B(  0-Au,  1-Au) :   0.3269 B(  0-Au,  3-Au) :   0.5069 B(  0-Au,  9-Au) :   0.2260
B(  0-Au, 10-Au) :   0.2098 B(  0-Au, 13-Au) :   0.2962 B(  1-Au,  2-Au) :   0.1934
B(  1-Au,  3-Au) :   0.2403 B(  1-Au,  7-Au) :   0.3013 B(  1-Au,  9-Au) :   0.2961
B(  1-Au, 14-Cr) :   0.3071 B(  2-Au,  3-Au) :   0.1593 B(  2-Au,  4-Au) :   0.2903
B(  2-Au,  7-Au) :   0.1830 B(  2-Au,  8-Au) :   0.1407 B(  2-Au, 14-Cr) :   0.4886
B(  3-Au,  4-Au) :   0.2691 B(  3-Au,  5-Au) :   0.1046 B(  3-Au, 13-Au) :   0.3707
B(  3-Au, 14-Cr) :   0.5796 B(  4-Au,  5-Au) :   0.2403 B(  4-Au, 14-Cr) :   0.5527
B(  5-Au,  8-Au) :   0.1809 B(  5-Au, 12-Au) :   0.3018 B(  5-Au, 13-Au) :   0.2117
B(  5-Au, 14-Cr) :   0.5460 B(  6-Au,  7-Au) :   0.2395 B(  6-Au,  8-Au) :   0.2905
B(  6-Au, 11-Au) :   0.2675 B(  6-Au, 14-Cr) :   0.5536 B(  7-Au,  9-Au) :   0.2119
B(  7-Au, 11-Au) :   0.1042 B(  7-Au, 14-Cr) :   0.5465 B(  8-Au, 11-Au) :   0.1613
B(  8-Au, 12-Au) :   0.1933 B(  8-Au, 14-Cr) :   0.4890 B(  9-Au, 10-Au) :   0.2952
B(  9-Au, 11-Au) :   0.3722 B(  9-Au, 14-Cr) :   0.1410 B( 10-Au, 11-Au) :   0.5071
B( 10-Au, 12-Au) :   0.3282 B( 10-Au, 13-Au) :   0.2260 B( 11-Au, 12-Au) :   0.2367
B( 11-Au, 14-Cr) :   0.5809 B( 12-Au, 13-Au) :   0.2961 B( 12-Au, 14-Cr) :   0.3073
B( 13-Au, 14-Cr) :   0.1415

FINAL SINGLE POINT ENERGY     -2945.821092175263

DIPOLE MOMENT
-------------
                                X             Y             Z
Electronic contribution:     17.25479     -35.04152     -33.21275
Nuclear contribution   :    -17.47493      35.49108      33.64006
                        -----------------------------------------
Total Dipole Moment    :     -0.22014       0.44955       0.42732
                        -----------------------------------------
Magnitude (a.u.)       :      0.65815
Magnitude (Debye)      :      1.67288

Rotational constants in cm-1:     0.001038     0.001028     0.000965
Rotational constants in MHz :    31.129881    30.818174    28.939542

                             ****ORCA TERMINATED NORMALLY****
TOTAL RUN TIME: 0 days 2 hours 45 minutes 32 seconds 350 msec
