                         Program Version 5.0.3 -  RELEASE  -
|  1> %pal nprocs 1 end
|  2>
|  3> !PBE def2-TZVP OPT UNO
|  4> !SLOWCONV KDIIS
|  5>
|  6> %geom maxiter 300 end
|  7>
|  8> *xyzfile 0 3 2.xyz                           ****END OF INPUT****
 Total Charge           Charge          ....    0
 Multiplicity           Mult            ....    3
 Number of Electrons    NEL             ....  214
FINAL SINGLE POINT ENERGY     -2402.480036688020
FINAL SINGLE POINT ENERGY     -2402.481651612795
FINAL SINGLE POINT ENERGY     -2402.482263249765
FINAL SINGLE POINT ENERGY     -2402.482504931687
FINAL SINGLE POINT ENERGY     -2402.483069971835
FINAL SINGLE POINT ENERGY     -2402.483468641550
FINAL SINGLE POINT ENERGY     -2402.483581244805
FINAL SINGLE POINT ENERGY     -2402.483604481765
FINAL SINGLE POINT ENERGY     -2402.483607526304
                    ***********************HURRAY********************

CARTESIAN COORDINATES (ANGSTROEM)
---------------------------------
  Au    10.903102    5.430103    8.984597
  Au    10.114515    4.555455    6.441033
  Au     8.959549    3.418794    8.801176
  Au     9.681038    7.740477    9.497642
  Au     8.250496    6.331010    5.328916
  Au     7.703366    9.624382    9.439648
  Au     7.888660    8.349704    7.029397
  Au     6.393741    4.503344    9.122401
  Au     6.632525    7.114976    9.591009
  Au     7.316866    3.973584    6.527665
  Cr     8.412237    5.957169    8.019264

 Multiplicity           Mult            ....    3
 Number of Electrons    NEL             ....  214
 Basis Dimension        Dim             ....  445

ORBITAL ENERGIES
----------------
                 SPIN UP ORBITALS
  NO   OCC          E(Eh)            E(eV)
   0   1.0000    -214.500875     -5836.8655
   1   1.0000     -24.303940      -661.3438
   2   1.0000     -20.671076      -562.4886
   3   1.0000     -20.665685      -562.3419
   4   1.0000     -20.665678      -562.3417
   5   1.0000      -4.022039      -109.4452
   6   1.0000      -4.020819      -109.4120
   7   1.0000      -4.020806      -109.4117
   8   1.0000      -4.020785      -109.4111
   9   1.0000      -4.019023      -109.3632
  10   1.0000      -4.018899      -109.3598
  11   1.0000      -4.018877      -109.3592
  12   1.0000      -4.016618      -109.2977
  13   1.0000      -4.016576      -109.2966
  14   1.0000      -4.016568      -109.2964
  15   1.0000      -2.801857       -76.2424
  16   1.0000      -2.241179       -60.9856
  17   1.0000      -2.240099       -60.9562
  18   1.0000      -2.240075       -60.9555
  19   1.0000      -2.238466       -60.9118
  20   1.0000      -2.236848       -60.8677
  21   1.0000      -2.235647       -60.8351
  22   1.0000      -2.235637       -60.8348
  23   1.0000      -2.235460       -60.8300
  24   1.0000      -2.235447       -60.8296
  25   1.0000      -2.234895       -60.8146
  26   1.0000      -2.233756       -60.7836
  27   1.0000      -2.233748       -60.7834
  28   1.0000      -2.232957       -60.7619
  29   1.0000      -2.232940       -60.7614
  30   1.0000      -2.232336       -60.7450
  31   1.0000      -2.231831       -60.7312
  32   1.0000      -2.231596       -60.7248
  33   1.0000      -2.231591       -60.7247
  34   1.0000      -2.229896       -60.6786
  35   1.0000      -2.229337       -60.6633
  36   1.0000      -2.229321       -60.6629
  37   1.0000      -2.228802       -60.6488
  38   1.0000      -2.227368       -60.6098
  39   1.0000      -2.227344       -60.6091
  40   1.0000      -2.225964       -60.5716
  41   1.0000      -2.225950       -60.5712
  42   1.0000      -2.225634       -60.5626
  43   1.0000      -2.225199       -60.5508
  44   1.0000      -2.225164       -60.5498
  45   1.0000      -2.225078       -60.5475
  46   1.0000      -1.795563       -48.8598
  47   1.0000      -1.788835       -48.6767
  48   1.0000      -1.788827       -48.6765
  49   1.0000      -0.405872       -11.0443
  50   1.0000      -0.376608       -10.2480
  51   1.0000      -0.360886        -9.8202
  52   1.0000      -0.360880        -9.8200
  53   1.0000      -0.355402        -9.6710
  54   1.0000      -0.355338        -9.6693
  55   1.0000      -0.355281        -9.6677
  56   1.0000      -0.349688        -9.5155
  57   1.0000      -0.335278        -9.1234
  58   1.0000      -0.331983        -9.0337
  59   1.0000      -0.331940        -9.0326
  60   1.0000      -0.324009        -8.8167
  61   1.0000      -0.323952        -8.8152
  62   1.0000      -0.320595        -8.7238
  63   1.0000      -0.318338        -8.6624
  64   1.0000      -0.318231        -8.6595
  65   1.0000      -0.314959        -8.5705
  66   1.0000      -0.314921        -8.5694
  67   1.0000      -0.314882        -8.5684
  68   1.0000      -0.308781        -8.4024
  69   1.0000      -0.308730        -8.4010
  70   1.0000      -0.305615        -8.3162
  71   1.0000      -0.301087        -8.1930
  72   1.0000      -0.300941        -8.1890
  73   1.0000      -0.297853        -8.1050
  74   1.0000      -0.288249        -7.8436
  75   1.0000      -0.288233        -7.8432
  76   1.0000      -0.285612        -7.7719
  77   1.0000      -0.277137        -7.5413
  78   1.0000      -0.276967        -7.5366
  79   1.0000      -0.276911        -7.5351
  80   1.0000      -0.274587        -7.4719
  81   1.0000      -0.274524        -7.4702
  82   1.0000      -0.272910        -7.4262
  83   1.0000      -0.268660        -7.3106
  84   1.0000      -0.268609        -7.3092
  85   1.0000      -0.264860        -7.2072
  86   1.0000      -0.264823        -7.2062
  87   1.0000      -0.263309        -7.1650
  88   1.0000      -0.262622        -7.1463
  89   1.0000      -0.258071        -7.0225
  90   1.0000      -0.258064        -7.0223
  91   1.0000      -0.253817        -6.9067
  92   1.0000      -0.253106        -6.8874
  93   1.0000      -0.253090        -6.8869
  94   1.0000      -0.249568        -6.7911
  95   1.0000      -0.249474        -6.7885
  96   1.0000      -0.243537        -6.6270
  97   1.0000      -0.243502        -6.6260
  98   1.0000      -0.236486        -6.4351
  99   1.0000      -0.236439        -6.4338
 100   1.0000      -0.233972        -6.3667
 101   1.0000      -0.233204        -6.3458
 102   1.0000      -0.233184        -6.3452
 103   1.0000      -0.214122        -5.8266
 104   1.0000      -0.205769        -5.5993
 105   1.0000      -0.205760        -5.5990
 106   1.0000      -0.200742        -5.4625
 107   1.0000      -0.200712        -5.4617
 108   0.0000      -0.185206        -5.0397
 109   0.0000      -0.159768        -4.3475
 110   0.0000      -0.159730        -4.3465
 111   0.0000      -0.129008        -3.5105
 112   0.0000      -0.128941        -3.5087

                 SPIN DOWN ORBITALS
  NO   OCC          E(Eh)            E(eV)
   0   1.0000    -214.500454     -5836.8541
   1   1.0000     -24.260554      -660.1632
   2   1.0000     -20.642063      -561.6991
   3   1.0000     -20.630451      -561.3831
   4   1.0000     -20.630437      -561.3827
   5   1.0000      -4.022890      -109.4684
   6   1.0000      -4.020781      -109.4110
   7   1.0000      -4.020761      -109.4105
   8   1.0000      -4.020740      -109.4099
   9   1.0000      -4.018972      -109.3618
  10   1.0000      -4.018848      -109.3584
  11   1.0000      -4.018823      -109.3577
  12   1.0000      -4.016311      -109.2894
  13   1.0000      -4.016257      -109.2879
  14   1.0000      -4.016246      -109.2876
  15   1.0000      -2.685125       -73.0660
  16   1.0000      -2.241613       -60.9974
  17   1.0000      -2.240086       -60.9558
  18   1.0000      -2.240058       -60.9551
  19   1.0000      -2.238473       -60.9120
  20   1.0000      -2.236518       -60.8587
  21   1.0000      -2.235719       -60.8370
  22   1.0000      -2.235696       -60.8364
  23   1.0000      -2.235266       -60.8247
  24   1.0000      -2.235225       -60.8236
  25   1.0000      -2.235218       -60.8234
  26   1.0000      -2.233776       -60.7841
  27   1.0000      -2.233757       -60.7836
  28   1.0000      -2.233473       -60.7759
  29   1.0000      -2.233466       -60.7757
  30   1.0000      -2.231910       -60.7334
  31   1.0000      -2.231445       -60.7207
  32   1.0000      -2.231025       -60.7093
  33   1.0000      -2.231010       -60.7089
  34   1.0000      -2.230248       -60.6881
  35   1.0000      -2.229647       -60.6718
  36   1.0000      -2.229626       -60.6712
  37   1.0000      -2.228767       -60.6478
  38   1.0000      -2.227406       -60.6108
  39   1.0000      -2.227380       -60.6101
  40   1.0000      -2.225749       -60.5657
  41   1.0000      -2.225734       -60.5653
  42   1.0000      -2.225394       -60.5561
  43   1.0000      -2.224800       -60.5399
  44   1.0000      -2.224753       -60.5386
  45   1.0000      -2.224691       -60.5369
  46   1.0000      -1.694384       -46.1065
  47   1.0000      -1.666908       -45.3589
  48   1.0000      -1.666876       -45.3580
  49   1.0000      -0.400562       -10.8998
  50   1.0000      -0.377735       -10.2787
  51   1.0000      -0.359711        -9.7882
  52   1.0000      -0.359656        -9.7867
  53   1.0000      -0.354648        -9.6505
  54   1.0000      -0.354616        -9.6496
  55   1.0000      -0.351352        -9.5608
  56   1.0000      -0.348757        -9.4902
  57   1.0000      -0.336341        -9.1523
  58   1.0000      -0.329713        -8.9719
  59   1.0000      -0.329682        -8.9711
  60   1.0000      -0.322335        -8.7712
  61   1.0000      -0.322218        -8.7680
  62   1.0000      -0.321117        -8.7380
  63   1.0000      -0.316382        -8.6092
  64   1.0000      -0.316359        -8.6086
  65   1.0000      -0.315727        -8.5914
  66   1.0000      -0.313983        -8.5439
  67   1.0000      -0.313951        -8.5430
  68   1.0000      -0.304620        -8.2891
  69   1.0000      -0.304305        -8.2806
  70   1.0000      -0.304257        -8.2793
  71   1.0000      -0.301203        -8.1962
  72   1.0000      -0.301110        -8.1936
  73   1.0000      -0.298782        -8.1303
  74   1.0000      -0.289970        -7.8905
  75   1.0000      -0.289956        -7.8901
  76   1.0000      -0.286437        -7.7944
  77   1.0000      -0.278111        -7.5678
  78   1.0000      -0.278061        -7.5664
  79   1.0000      -0.277707        -7.5568
  80   1.0000      -0.275209        -7.4888
  81   1.0000      -0.275133        -7.4867
  82   1.0000      -0.273280        -7.4363
  83   1.0000      -0.268938        -7.3182
  84   1.0000      -0.268898        -7.3171
  85   1.0000      -0.266029        -7.2390
  86   1.0000      -0.265993        -7.2380
  87   1.0000      -0.264643        -7.2013
  88   1.0000      -0.263406        -7.1676
  89   1.0000      -0.258594        -7.0367
  90   1.0000      -0.258584        -7.0364
  91   1.0000      -0.255305        -6.9472
  92   1.0000      -0.253846        -6.9075
  93   1.0000      -0.253834        -6.9072
  94   1.0000      -0.250660        -6.8208
  95   1.0000      -0.250245        -6.8095
  96   1.0000      -0.244242        -6.6462
  97   1.0000      -0.244206        -6.6452
  98   1.0000      -0.237507        -6.4629
  99   1.0000      -0.237454        -6.4615
 100   1.0000      -0.234630        -6.3846
 101   1.0000      -0.233929        -6.3655
 102   1.0000      -0.233907        -6.3649
 103   1.0000      -0.205506        -5.5921
 104   1.0000      -0.188562        -5.1310
 105   1.0000      -0.188538        -5.1304
 106   0.0000      -0.142233        -3.8704
 107   0.0000      -0.142152        -3.8681
 108   0.0000      -0.138547        -3.7700
 109   0.0000      -0.112058        -3.0493
 110   0.0000      -0.112035        -3.0486

MULLIKEN ATOMIC CHARGES AND SPIN POPULATIONS
--------------------------------------------
   0 Au:    0.269498   -0.043498
   1 Au:    0.455223   -0.114090
   2 Au:    0.455259   -0.114313
   3 Au:    0.136983   -0.147941
   4 Au:    0.268987   -0.042862
   5 Au:    0.352713   -0.191638
   6 Au:    0.138276   -0.147181
   7 Au:    0.269044   -0.043018
   8 Au:    0.137809   -0.147231
   9 Au:    0.455356   -0.114298
  10 Cr:   -2.939149    3.106070
Sum of atomic charges         :   -0.0000000

LOEWDIN ATOMIC CHARGES AND SPIN POPULATIONS
-------------------------------------------
   0 Au:    0.123230   -0.064801
   1 Au:    0.089962   -0.103373
   2 Au:    0.089906   -0.103523
   3 Au:    0.077164   -0.106887
   4 Au:    0.123400   -0.063966
   5 Au:    0.119281   -0.177535
   6 Au:    0.077074   -0.106703
   7 Au:    0.123351   -0.064139
   8 Au:    0.077179   -0.106705
   9 Au:    0.089913   -0.103684
  10 Cr:   -0.990460    3.001316

  Mayer bond orders larger than 0.100000
B(  0-Au,  1-Au) :   0.2329 B(  0-Au,  2-Au) :   0.2330 B(  0-Au,  3-Au) :   0.4182
B(  0-Au, 10-Cr) :   0.5056 B(  1-Au,  2-Au) :   0.1283 B(  1-Au,  4-Au) :   0.2322
B(  1-Au,  9-Au) :   0.1305 B(  1-Au, 10-Cr) :   0.7499 B(  2-Au,  7-Au) :   0.2323
B(  2-Au,  9-Au) :   0.1300 B(  2-Au, 10-Cr) :   0.7500 B(  3-Au,  5-Au) :   0.3000
B(  3-Au, 10-Cr) :   0.7929 B(  4-Au,  6-Au) :   0.4183 B(  4-Au,  9-Au) :   0.2321
B(  4-Au, 10-Cr) :   0.5067 B(  5-Au,  6-Au) :   0.2998 B(  5-Au,  8-Au) :   0.2999
B(  5-Au, 10-Cr) :   0.3487 B(  6-Au, 10-Cr) :   0.7929 B(  7-Au,  8-Au) :   0.4184
B(  7-Au,  9-Au) :   0.2320 B(  7-Au, 10-Cr) :   0.5067 B(  8-Au, 10-Cr) :   0.7927
B(  9-Au, 10-Cr) :   0.7488

FINAL SINGLE POINT ENERGY     -2402.483609773020

DIPOLE MOMENT
-------------
                                X             Y             Z
Electronic contribution:     -1.00773       5.31892       2.06536
Nuclear contribution   :      0.97345      -5.13838      -1.99520
                        -----------------------------------------
Total Dipole Moment    :     -0.03428       0.18054       0.07016
                        -----------------------------------------
Magnitude (a.u.)       :      0.19670
Magnitude (Debye)      :      0.49998

Rotational constants in cm-1:     0.002191     0.001394     0.001393
Rotational constants in MHz :    65.688799    41.789289    41.773619

                             ****ORCA TERMINATED NORMALLY****
TOTAL RUN TIME: 0 days 1 hours 7 minutes 9 seconds 845 msec
