                         Program Version 5.0.3 -  RELEASE  -
|  1> !RI-B2PLYP def2-TZVP def2-TZVP/C
|  2> !RIJCOSX VERYSLOWCONV
|  3>
|  4> %scf
|  5>   AutoTRAHIter 200
|  6>   maxiter 400
|  7> end
|  8>
|  9>
| 10> %pal nprocs 6 end
| 11>
| 12> *xyzfile 0 5 pbe.xyz
| 13>
| 14> $new_job
| 15>
| 16> !RI-B2PLYP def2-TZVP def2-TZVP/C
| 17> !RIJCOSX VERYSLOWCONV
| 18>
| 19> %scf
| 20>   AutoTRAHIter 200
| 21>   maxiter 400
| 22> end
| 23>
| 24>
| 25> %pal nprocs 6 end
| 26>
| 27> *xyzfile 0 3 pbe.xyz
| 28>
| 29>
| 30>
| 31>
| 32>
| 33>                          ****END OF INPUT****
 Total Charge           Charge          ....    0
 Multiplicity           Mult            ....    5
 Number of Electrons    NEL             ....  214
MP2 TOTAL ENERGY:    -2400.091411455 Eh
FINAL SINGLE POINT ENERGY     -2400.091411454944

CARTESIAN COORDINATES (ANGSTROEM)
---------------------------------
  Au     7.798623    6.285975    5.170911
  Au     5.572559    7.652629    6.322152
  Au     6.030380    5.507326    9.812774
  Au     6.508558    4.846350    7.263255
  Au     5.078174    8.372378    8.852576
  Au     9.415951    5.892469    7.489944
  Au     9.006699    6.574609   10.045897
  Au     6.745623    7.945411   11.134792
  Au     8.052196    9.440198    9.084502
  Au     8.482725    8.695011    6.549240
  Cr     7.259591    7.135804    8.225311

 Multiplicity           Mult            ....    3
 Number of Electrons    NEL             ....  214
 Basis Dimension        Dim             ....  445

ORBITAL ENERGIES
----------------
                 SPIN UP ORBITALS
  NO   OCC          E(Eh)            E(eV)
   0   1.0000    -217.726522     -5924.6399
   1   1.0000     -25.415120      -691.5806
   2   1.0000     -21.553603      -586.5034
   3   1.0000     -21.553132      -586.4905
   4   1.0000     -21.550726      -586.4251
   5   1.0000      -4.394124      -119.5702
   6   1.0000      -4.393235      -119.5460
   7   1.0000      -4.387680      -119.3948
   8   1.0000      -4.387583      -119.3922
   9   1.0000      -4.386721      -119.3687
  10   1.0000      -4.386559      -119.3643
  11   1.0000      -4.386165      -119.3536
  12   1.0000      -4.386069      -119.3510
  13   1.0000      -4.385153      -119.3261
  14   1.0000      -4.384969      -119.3211
  15   1.0000      -3.203767       -87.1789
  16   1.0000      -2.514045       -68.4106
  17   1.0000      -2.513337       -68.3914
  18   1.0000      -2.513270       -68.3896
  19   1.0000      -2.512258       -68.3620
  20   1.0000      -2.511511       -68.3417
  21   1.0000      -2.511135       -68.3315
  22   1.0000      -2.510935       -68.3260
  23   1.0000      -2.510278       -68.3081
  24   1.0000      -2.509910       -68.2981
  25   1.0000      -2.509793       -68.2949
  26   1.0000      -2.507541       -68.2337
  27   1.0000      -2.507318       -68.2276
  28   1.0000      -2.506274       -68.1992
  29   1.0000      -2.506161       -68.1961
  30   1.0000      -2.505750       -68.1849
  31   1.0000      -2.505568       -68.1800
  32   1.0000      -2.504689       -68.1561
  33   1.0000      -2.504594       -68.1535
  34   1.0000      -2.502111       -68.0859
  35   1.0000      -2.501945       -68.0814
  36   1.0000      -2.501161       -68.0600
  37   1.0000      -2.500961       -68.0546
  38   1.0000      -2.500861       -68.0519
  39   1.0000      -2.500641       -68.0459
  40   1.0000      -2.499783       -68.0225
  41   1.0000      -2.499458       -68.0137
  42   1.0000      -2.499291       -68.0092
  43   1.0000      -2.499000       -68.0012
  44   1.0000      -2.498048       -67.9753
  45   1.0000      -2.497799       -67.9686
  46   1.0000      -2.093403       -56.9644
  47   1.0000      -2.088557       -56.8325
  48   1.0000      -2.087317       -56.7988
  49   1.0000      -0.478677       -13.0255
  50   1.0000      -0.469043       -12.7633
  51   1.0000      -0.455949       -12.4070
  52   1.0000      -0.446884       -12.1603
  53   1.0000      -0.445930       -12.1344
  54   1.0000      -0.444603       -12.0983
  55   1.0000      -0.442284       -12.0352
  56   1.0000      -0.440452       -11.9853
  57   1.0000      -0.439395       -11.9565
  58   1.0000      -0.434071       -11.8117
  59   1.0000      -0.433549       -11.7975
  60   1.0000      -0.432210       -11.7610
  61   1.0000      -0.430950       -11.7267
  62   1.0000      -0.425519       -11.5790
  63   1.0000      -0.423302       -11.5186
  64   1.0000      -0.422816       -11.5054
  65   1.0000      -0.417750       -11.3676
  66   1.0000      -0.411823       -11.2063
  67   1.0000      -0.410831       -11.1793
  68   1.0000      -0.408339       -11.1115
  69   1.0000      -0.395942       -10.7741
  70   1.0000      -0.394754       -10.7418
  71   1.0000      -0.394425       -10.7329
  72   1.0000      -0.391021       -10.6402
  73   1.0000      -0.387453       -10.5431
  74   1.0000      -0.386190       -10.5088
  75   1.0000      -0.385692       -10.4952
  76   1.0000      -0.385578       -10.4921
  77   1.0000      -0.383590       -10.4380
  78   1.0000      -0.380670       -10.3586
  79   1.0000      -0.380256       -10.3473
  80   1.0000      -0.380190       -10.3455
  81   1.0000      -0.372762       -10.1434
  82   1.0000      -0.369487       -10.0543
  83   1.0000      -0.360142        -9.8000
  84   1.0000      -0.358197        -9.7470
  85   1.0000      -0.353918        -9.6306
  86   1.0000      -0.352997        -9.6055
  87   1.0000      -0.352823        -9.6008
  88   1.0000      -0.352590        -9.5945
  89   1.0000      -0.351760        -9.5719
  90   1.0000      -0.350731        -9.5439
  91   1.0000      -0.350341        -9.5333
  92   1.0000      -0.348641        -9.4870
  93   1.0000      -0.342799        -9.3280
  94   1.0000      -0.339616        -9.2414
  95   1.0000      -0.339477        -9.2376
  96   1.0000      -0.338335        -9.2066
  97   1.0000      -0.337487        -9.1835
  98   1.0000      -0.336486        -9.1563
  99   1.0000      -0.336013        -9.1434
 100   1.0000      -0.319579        -8.6962
 101   1.0000      -0.317676        -8.6444
 102   1.0000      -0.287448        -7.8219
 103   1.0000      -0.284369        -7.7381
 104   1.0000      -0.284000        -7.7280
 105   1.0000      -0.268175        -7.2974
 106   1.0000      -0.264263        -7.1910
 107   1.0000      -0.245930        -6.6921
 108   0.0000      -0.118673        -3.2293
 109   0.0000      -0.092295        -2.5115
 110   0.0000      -0.089153        -2.4260
 111   0.0000      -0.068612        -1.8670
 112   0.0000      -0.040012        -1.0888

                 SPIN DOWN ORBITALS
  NO   OCC          E(Eh)            E(eV)
   0   1.0000    -217.725185     -5924.6035
   1   1.0000     -25.345975      -689.6990
   2   1.0000     -21.491856      -584.8231
   3   1.0000     -21.491400      -584.8107
   4   1.0000     -21.482543      -584.5697
   5   1.0000      -4.395095      -119.5966
   6   1.0000      -4.394058      -119.5684
   7   1.0000      -4.386964      -119.3754
   8   1.0000      -4.386858      -119.3725
   9   1.0000      -4.386026      -119.3498
  10   1.0000      -4.385870      -119.3456
  11   1.0000      -4.385423      -119.3334
  12   1.0000      -4.385320      -119.3306
  13   1.0000      -4.384438      -119.3066
  14   1.0000      -4.384261      -119.3018
  15   1.0000      -2.988895       -81.3320
  16   1.0000      -2.513717       -68.4017
  17   1.0000      -2.512676       -68.3734
  18   1.0000      -2.512319       -68.3637
  19   1.0000      -2.511748       -68.3481
  20   1.0000      -2.511132       -68.3314
  21   1.0000      -2.510528       -68.3149
  22   1.0000      -2.509268       -68.2807
  23   1.0000      -2.509098       -68.2760
  24   1.0000      -2.508132       -68.2497
  25   1.0000      -2.508025       -68.2468
  26   1.0000      -2.505534       -68.1790
  27   1.0000      -2.505348       -68.1740
  28   1.0000      -2.504384       -68.1477
  29   1.0000      -2.504335       -68.1464
  30   1.0000      -2.504243       -68.1439
  31   1.0000      -2.504125       -68.1407
  32   1.0000      -2.503235       -68.1165
  33   1.0000      -2.503136       -68.1138
  34   1.0000      -2.501008       -68.0559
  35   1.0000      -2.500858       -68.0518
  36   1.0000      -2.500131       -68.0320
  37   1.0000      -2.499895       -68.0256
  38   1.0000      -2.499808       -68.0232
  39   1.0000      -2.499637       -68.0186
  40   1.0000      -2.498705       -67.9932
  41   1.0000      -2.498407       -67.9851
  42   1.0000      -2.498206       -67.9796
  43   1.0000      -2.497932       -67.9722
  44   1.0000      -2.496891       -67.9439
  45   1.0000      -2.496659       -67.9375
  46   1.0000      -1.849454       -50.3262
  47   1.0000      -1.848818       -50.3089
  48   1.0000      -1.829031       -49.7705
  49   1.0000      -0.471280       -12.8242
  50   1.0000      -0.452893       -12.3238
  51   1.0000      -0.446970       -12.1627
  52   1.0000      -0.442480       -12.0405
  53   1.0000      -0.441860       -12.0236
  54   1.0000      -0.439623       -11.9627
  55   1.0000      -0.439224       -11.9519
  56   1.0000      -0.434832       -11.8324
  57   1.0000      -0.434400       -11.8206
  58   1.0000      -0.432831       -11.7779
  59   1.0000      -0.432326       -11.7642
  60   1.0000      -0.428587       -11.6624
  61   1.0000      -0.427363       -11.6291
  62   1.0000      -0.423070       -11.5123
  63   1.0000      -0.421946       -11.4817
  64   1.0000      -0.421848       -11.4791
  65   1.0000      -0.418984       -11.4011
  66   1.0000      -0.410387       -11.1672
  67   1.0000      -0.399105       -10.8602
  68   1.0000      -0.397195       -10.8082
  69   1.0000      -0.396242       -10.7823
  70   1.0000      -0.393030       -10.6949
  71   1.0000      -0.390525       -10.6267
  72   1.0000      -0.389924       -10.6104
  73   1.0000      -0.387650       -10.5485
  74   1.0000      -0.386123       -10.5070
  75   1.0000      -0.385935       -10.5018
  76   1.0000      -0.385537       -10.4910
  77   1.0000      -0.380624       -10.3573
  78   1.0000      -0.379030       -10.3139
  79   1.0000      -0.378360       -10.2957
  80   1.0000      -0.377761       -10.2794
  81   1.0000      -0.375253       -10.2112
  82   1.0000      -0.370926       -10.0934
  83   1.0000      -0.363399        -9.8886
  84   1.0000      -0.359319        -9.7776
  85   1.0000      -0.355623        -9.6770
  86   1.0000      -0.353933        -9.6310
  87   1.0000      -0.353488        -9.6189
  88   1.0000      -0.352775        -9.5995
  89   1.0000      -0.352004        -9.5785
  90   1.0000      -0.351555        -9.5663
  91   1.0000      -0.349078        -9.4989
  92   1.0000      -0.348466        -9.4822
  93   1.0000      -0.344207        -9.3664
  94   1.0000      -0.339109        -9.2276
  95   1.0000      -0.338991        -9.2244
  96   1.0000      -0.338155        -9.2017
  97   1.0000      -0.336212        -9.1488
  98   1.0000      -0.336084        -9.1453
  99   1.0000      -0.317081        -8.6282
 100   1.0000      -0.306925        -8.3518
 101   1.0000      -0.285482        -7.7684
 102   1.0000      -0.276713        -7.5298
 103   1.0000      -0.221627        -6.0308
 104   1.0000      -0.217569        -5.9203
 105   1.0000      -0.194662        -5.2970
 106   0.0000      -0.117402        -3.1947
 107   0.0000      -0.049133        -1.3370
 108   0.0000      -0.044962        -1.2235
 109   0.0000      -0.034998        -0.9523
 110   0.0000      -0.032063        -0.8725

MULLIKEN ATOMIC CHARGES AND SPIN POPULATIONS
--------------------------------------------
   0 Au:    0.410517   -0.395102
   1 Au:    0.314656   -0.071521
   2 Au:    0.336258   -0.089815
   3 Au:    0.308243   -0.089533
   4 Au:    0.339834   -0.072779
   5 Au:    0.316477   -0.071701
   6 Au:    0.339923   -0.072213
   7 Au:    0.417605   -0.382489
   8 Au:    0.335636   -0.088340
   9 Au:    0.310720   -0.090479
  10 Cr:   -3.429869    3.423972
Sum of atomic charges         :   -0.0000000

LOEWDIN ATOMIC CHARGES AND SPIN POPULATIONS
-------------------------------------------
   0 Au:    0.127047   -0.285885
   1 Au:    0.097050   -0.120017
   2 Au:    0.102566   -0.128594
   3 Au:    0.093265   -0.127660
   4 Au:    0.105603   -0.120265
   5 Au:    0.097031   -0.119725
   6 Au:    0.105593   -0.120470
   7 Au:    0.120624   -0.279931
   8 Au:    0.101869   -0.128461
   9 Au:    0.094054   -0.127716
  10 Cr:   -1.044703    3.558722

  Mayer bond orders larger than 0.100000
B(  0-Au,  1-Au) :   0.1521 B(  0-Au,  3-Au) :   0.1562 B(  0-Au,  5-Au) :   0.1508
B(  0-Au,  9-Au) :   0.1526 B(  0-Au, 10-Cr) :   0.3922 B(  1-Au,  4-Au) :   0.3516
B(  1-Au,  6-Au) :   0.1090 B(  1-Au, 10-Cr) :   0.6192 B(  2-Au,  3-Au) :   0.3452
B(  2-Au,  7-Au) :   0.1467 B(  2-Au,  9-Au) :   0.1063 B(  2-Au, 10-Cr) :   0.6492
B(  3-Au,  8-Au) :   0.1071 B(  3-Au, 10-Cr) :   0.6327 B(  4-Au,  5-Au) :   0.1097
B(  4-Au,  7-Au) :   0.1453 B(  4-Au, 10-Cr) :   0.6349 B(  5-Au,  6-Au) :   0.3510
B(  5-Au, 10-Cr) :   0.6186 B(  6-Au,  7-Au) :   0.1461 B(  6-Au, 10-Cr) :   0.6355
B(  7-Au,  8-Au) :   0.1501 B(  7-Au, 10-Cr) :   0.4147 B(  8-Au,  9-Au) :   0.3443
B(  8-Au, 10-Cr) :   0.6490 B(  9-Au, 10-Cr) :   0.6332

MP2 TOTAL ENERGY:    -2400.087730254 Eh
FINAL SINGLE POINT ENERGY     -2400.087730254225

DIPOLE MOMENT
-------------
                                X             Y             Z
Electronic contribution:      0.33905      -0.51652      -1.87049
Nuclear contribution   :     -0.33407       0.50920       1.84219
                        -----------------------------------------
Total Dipole Moment    :      0.00499      -0.00732      -0.02831
                        -----------------------------------------
Magnitude (a.u.)       :      0.02966
Magnitude (Debye)      :      0.07539

Rotational constants in cm-1:     0.002177     0.001594     0.001593
Rotational constants in MHz :    65.264761    47.787572    47.770293

                             ****ORCA TERMINATED NORMALLY****
TOTAL RUN TIME: 0 days 0 hours 18 minutes 41 seconds 421 msec
