                         Program Version 5.0.3 -  RELEASE  -
|  1> !PBE def2-TZVP VERYSLOWCONV
|  2>
|  3> %scf
|  4>   AutoTRAHIter 200
|  5>   maxiter 400
|  6> end
|  7>
|  8>
|  9> %pal nprocs 6 end
| 10>
| 11> *xyzfile 0 5 pbe.xyz
| 12>
| 13> $new_job
| 14>
| 15> !PBE def2-TZVP VERYSLOWCONV
| 16>
| 17> %scf
| 18>   AutoTRAHIter 200
| 19>   maxiter 400
| 20> end
| 21>
| 22>
| 23> %pal nprocs 6 end
| 24>
| 25> *xyzfile 0 3 pbe.xyz
| 26>
| 27>
| 28>
| 29>
| 30>
| 31>                          ****END OF INPUT****
 Total Charge           Charge          ....    0
 Multiplicity           Mult            ....    5
 Number of Electrons    NEL             ....  214
FINAL SINGLE POINT ENERGY     -2402.472053951241

CARTESIAN COORDINATES (ANGSTROEM)
---------------------------------
  Au     7.798623    6.285975    5.170911
  Au     5.572559    7.652629    6.322152
  Au     6.030380    5.507326    9.812774
  Au     6.508558    4.846350    7.263255
  Au     5.078174    8.372378    8.852576
  Au     9.415951    5.892469    7.489944
  Au     9.006699    6.574609   10.045897
  Au     6.745623    7.945411   11.134792
  Au     8.052196    9.440198    9.084502
  Au     8.482725    8.695011    6.549240
  Cr     7.259591    7.135804    8.225311

 Multiplicity           Mult            ....    3
 Number of Electrons    NEL             ....  214
 Basis Dimension        Dim             ....  445

ORBITAL ENERGIES
----------------
                 SPIN UP ORBITALS
  NO   OCC          E(Eh)            E(eV)
   0   1.0000    -214.506682     -5837.0236
   1   1.0000     -24.312100      -661.5659
   2   1.0000     -20.677137      -562.6535
   3   1.0000     -20.676382      -562.6330
   4   1.0000     -20.674554      -562.5832
   5   1.0000      -4.019012      -109.3629
   6   1.0000      -4.018775      -109.3564
   7   1.0000      -4.017630      -109.3253
   8   1.0000      -4.017528      -109.3225
   9   1.0000      -4.017475      -109.3210
  10   1.0000      -4.017402      -109.3191
  11   1.0000      -4.016097      -109.2836
  12   1.0000      -4.016029      -109.2817
  13   1.0000      -4.015976      -109.2803
  14   1.0000      -4.015893      -109.2780
  15   1.0000      -2.803966       -76.2998
  16   1.0000      -2.237019       -60.8724
  17   1.0000      -2.236898       -60.8691
  18   1.0000      -2.236851       -60.8678
  19   1.0000      -2.236632       -60.8619
  20   1.0000      -2.234973       -60.8167
  21   1.0000      -2.234551       -60.8052
  22   1.0000      -2.234266       -60.7975
  23   1.0000      -2.234114       -60.7933
  24   1.0000      -2.233732       -60.7829
  25   1.0000      -2.233514       -60.7770
  26   1.0000      -2.233286       -60.7708
  27   1.0000      -2.232708       -60.7551
  28   1.0000      -2.232621       -60.7527
  29   1.0000      -2.231701       -60.7277
  30   1.0000      -2.231199       -60.7140
  31   1.0000      -2.230952       -60.7073
  32   1.0000      -2.230595       -60.6976
  33   1.0000      -2.229141       -60.6580
  34   1.0000      -2.228662       -60.6450
  35   1.0000      -2.228588       -60.6430
  36   1.0000      -2.228389       -60.6376
  37   1.0000      -2.227938       -60.6253
  38   1.0000      -2.224762       -60.5389
  39   1.0000      -2.224279       -60.5257
  40   1.0000      -2.224253       -60.5250
  41   1.0000      -2.223807       -60.5129
  42   1.0000      -2.222922       -60.4888
  43   1.0000      -2.222555       -60.4788
  44   1.0000      -2.222537       -60.4783
  45   1.0000      -2.222190       -60.4689
  46   1.0000      -1.795730       -48.8643
  47   1.0000      -1.794131       -48.8208
  48   1.0000      -1.789555       -48.6963
  49   1.0000      -0.405987       -11.0475
  50   1.0000      -0.364393        -9.9156
  51   1.0000      -0.362169        -9.8551
  52   1.0000      -0.350479        -9.5370
  53   1.0000      -0.348967        -9.4959
  54   1.0000      -0.348261        -9.4767
  55   1.0000      -0.344036        -9.3617
  56   1.0000      -0.342639        -9.3237
  57   1.0000      -0.341137        -9.2828
  58   1.0000      -0.340348        -9.2614
  59   1.0000      -0.334712        -9.1080
  60   1.0000      -0.334315        -9.0972
  61   1.0000      -0.330553        -8.9948
  62   1.0000      -0.324344        -8.8259
  63   1.0000      -0.324202        -8.8220
  64   1.0000      -0.318787        -8.6746
  65   1.0000      -0.312051        -8.4914
  66   1.0000      -0.307792        -8.3755
  67   1.0000      -0.307466        -8.3666
  68   1.0000      -0.306591        -8.3428
  69   1.0000      -0.305450        -8.3117
  70   1.0000      -0.298609        -8.1256
  71   1.0000      -0.296377        -8.0648
  72   1.0000      -0.295212        -8.0331
  73   1.0000      -0.287342        -7.8190
  74   1.0000      -0.286258        -7.7895
  75   1.0000      -0.286232        -7.7888
  76   1.0000      -0.285843        -7.7782
  77   1.0000      -0.283052        -7.7022
  78   1.0000      -0.281536        -7.6610
  79   1.0000      -0.279906        -7.6166
  80   1.0000      -0.279834        -7.6147
  81   1.0000      -0.273154        -7.4329
  82   1.0000      -0.271279        -7.3819
  83   1.0000      -0.267043        -7.2666
  84   1.0000      -0.265798        -7.2327
  85   1.0000      -0.257462        -7.0059
  86   1.0000      -0.257431        -7.0051
  87   1.0000      -0.257047        -6.9946
  88   1.0000      -0.256938        -6.9916
  89   1.0000      -0.256565        -6.9815
  90   1.0000      -0.256117        -6.9693
  91   1.0000      -0.253917        -6.9094
  92   1.0000      -0.251550        -6.8450
  93   1.0000      -0.250325        -6.8117
  94   1.0000      -0.247269        -6.7285
  95   1.0000      -0.246752        -6.7145
  96   1.0000      -0.244767        -6.6605
  97   1.0000      -0.244210        -6.6453
  98   1.0000      -0.243316        -6.6210
  99   1.0000      -0.238415        -6.4876
 100   1.0000      -0.231934        -6.3113
 101   1.0000      -0.229737        -6.2515
 102   1.0000      -0.229467        -6.2441
 103   1.0000      -0.215126        -5.8539
 104   1.0000      -0.209205        -5.6927
 105   1.0000      -0.208075        -5.6620
 106   1.0000      -0.202556        -5.5118
 107   1.0000      -0.199440        -5.4270
 108   0.0000      -0.183782        -5.0010
 109   0.0000      -0.155466        -4.2304
 110   0.0000      -0.153198        -4.1687
 111   0.0000      -0.152978        -4.1627
 112   0.0000      -0.107569        -2.9271

                 SPIN DOWN ORBITALS
  NO   OCC          E(Eh)            E(eV)
   0   1.0000    -214.506298     -5837.0131
   1   1.0000     -24.272788      -660.4961
   2   1.0000     -20.647250      -561.8402
   3   1.0000     -20.645679      -561.7975
   4   1.0000     -20.644995      -561.7789
   5   1.0000      -4.019140      -109.3664
   6   1.0000      -4.018839      -109.3582
   7   1.0000      -4.016710      -109.3002
   8   1.0000      -4.016609      -109.2975
   9   1.0000      -4.016545      -109.2957
  10   1.0000      -4.016471      -109.2937
  11   1.0000      -4.015109      -109.2567
  12   1.0000      -4.015042      -109.2549
  13   1.0000      -4.014984      -109.2533
  14   1.0000      -4.014901      -109.2510
  15   1.0000      -2.698511       -73.4302
  16   1.0000      -2.235684       -60.8361
  17   1.0000      -2.235598       -60.8337
  18   1.0000      -2.235565       -60.8328
  19   1.0000      -2.235366       -60.8274
  20   1.0000      -2.234305       -60.7985
  21   1.0000      -2.234058       -60.7918
  22   1.0000      -2.233095       -60.7656
  23   1.0000      -2.232700       -60.7549
  24   1.0000      -2.232666       -60.7539
  25   1.0000      -2.232322       -60.7446
  26   1.0000      -2.232144       -60.7397
  27   1.0000      -2.232055       -60.7373
  28   1.0000      -2.231929       -60.7339
  29   1.0000      -2.230887       -60.7055
  30   1.0000      -2.230652       -60.6991
  31   1.0000      -2.230469       -60.6942
  32   1.0000      -2.230178       -60.6862
  33   1.0000      -2.229403       -60.6651
  34   1.0000      -2.227896       -60.6241
  35   1.0000      -2.227867       -60.6233
  36   1.0000      -2.227658       -60.6177
  37   1.0000      -2.227505       -60.6135
  38   1.0000      -2.223962       -60.5171
  39   1.0000      -2.223487       -60.5042
  40   1.0000      -2.223435       -60.5027
  41   1.0000      -2.222999       -60.4909
  42   1.0000      -2.222050       -60.4650
  43   1.0000      -2.221691       -60.4553
  44   1.0000      -2.221650       -60.4542
  45   1.0000      -2.221313       -60.4450
  46   1.0000      -1.692021       -46.0422
  47   1.0000      -1.688214       -45.9386
  48   1.0000      -1.688026       -45.9335
  49   1.0000      -0.399484       -10.8705
  50   1.0000      -0.363462        -9.8903
  51   1.0000      -0.355884        -9.6841
  52   1.0000      -0.348451        -9.4818
  53   1.0000      -0.348042        -9.4707
  54   1.0000      -0.345726        -9.4077
  55   1.0000      -0.343937        -9.3590
  56   1.0000      -0.335943        -9.1415
  57   1.0000      -0.335803        -9.1377
  58   1.0000      -0.335211        -9.1215
  59   1.0000      -0.334963        -9.1148
  60   1.0000      -0.329942        -8.9782
  61   1.0000      -0.326361        -8.8807
  62   1.0000      -0.323255        -8.7962
  63   1.0000      -0.323225        -8.7954
  64   1.0000      -0.319362        -8.6903
  65   1.0000      -0.312671        -8.5082
  66   1.0000      -0.308584        -8.3970
  67   1.0000      -0.306861        -8.3501
  68   1.0000      -0.299720        -8.1558
  69   1.0000      -0.299677        -8.1546
  70   1.0000      -0.298855        -8.1323
  71   1.0000      -0.295963        -8.0536
  72   1.0000      -0.295799        -8.0491
  73   1.0000      -0.286392        -7.7931
  74   1.0000      -0.286339        -7.7917
  75   1.0000      -0.286197        -7.7878
  76   1.0000      -0.285441        -7.7673
  77   1.0000      -0.283547        -7.7157
  78   1.0000      -0.281678        -7.6648
  79   1.0000      -0.279586        -7.6079
  80   1.0000      -0.279566        -7.6074
  81   1.0000      -0.275705        -7.5023
  82   1.0000      -0.273028        -7.4295
  83   1.0000      -0.268324        -7.3015
  84   1.0000      -0.266532        -7.2527
  85   1.0000      -0.258492        -7.0339
  86   1.0000      -0.258139        -7.0243
  87   1.0000      -0.257991        -7.0203
  88   1.0000      -0.256976        -6.9927
  89   1.0000      -0.256211        -6.9719
  90   1.0000      -0.256088        -6.9685
  91   1.0000      -0.253602        -6.9009
  92   1.0000      -0.251976        -6.8566
  93   1.0000      -0.250453        -6.8152
  94   1.0000      -0.246979        -6.7206
  95   1.0000      -0.246746        -6.7143
  96   1.0000      -0.244354        -6.6492
  97   1.0000      -0.244222        -6.6456
  98   1.0000      -0.244138        -6.6433
  99   1.0000      -0.240207        -6.5364
 100   1.0000      -0.232772        -6.3341
 101   1.0000      -0.232360        -6.3228
 102   1.0000      -0.229286        -6.2392
 103   1.0000      -0.200556        -5.4574
 104   1.0000      -0.197604        -5.3771
 105   1.0000      -0.182329        -4.9614
 106   0.0000      -0.181923        -4.9504
 107   0.0000      -0.123376        -3.3572
 108   0.0000      -0.121509        -3.3064
 109   0.0000      -0.115545        -3.1441
 110   0.0000      -0.112722        -3.0673

MULLIKEN ATOMIC CHARGES AND SPIN POPULATIONS
--------------------------------------------
   0 Au:    0.446688   -0.234639
   1 Au:    0.345868   -0.004793
   2 Au:    0.379510   -0.003463
   3 Au:    0.345543   -0.005298
   4 Au:    0.379050   -0.003479
   5 Au:    0.347238   -0.005279
   6 Au:    0.379293   -0.003031
   7 Au:    0.468292   -0.239477
   8 Au:    0.379377   -0.003316
   9 Au:    0.347091   -0.005185
  10 Cr:   -3.817950    2.507959
Sum of atomic charges         :   -0.0000000

LOEWDIN ATOMIC CHARGES AND SPIN POPULATIONS
-------------------------------------------
   0 Au:    0.104407   -0.172128
   1 Au:    0.118969   -0.037763
   2 Au:    0.127568   -0.036787
   3 Au:    0.118564   -0.038090
   4 Au:    0.127214   -0.036727
   5 Au:    0.118797   -0.037863
   6 Au:    0.127360   -0.036786
   7 Au:    0.104416   -0.177965
   8 Au:    0.127033   -0.036840
   9 Au:    0.119024   -0.037753
  10 Cr:   -1.193352    2.648702

  Mayer bond orders larger than 0.100000
B(  0-Au,  1-Au) :   0.2013 B(  0-Au,  3-Au) :   0.2042 B(  0-Au,  5-Au) :   0.2007
B(  0-Au,  9-Au) :   0.1988 B(  0-Au, 10-Cr) :   0.4783 B(  1-Au,  4-Au) :   0.4047
B(  1-Au,  6-Au) :   0.1108 B(  1-Au, 10-Cr) :   0.7836 B(  2-Au,  3-Au) :   0.4045
B(  2-Au,  7-Au) :   0.1875 B(  2-Au,  9-Au) :   0.1105 B(  2-Au, 10-Cr) :   0.8037
B(  3-Au,  8-Au) :   0.1115 B(  3-Au, 10-Cr) :   0.7828 B(  4-Au,  5-Au) :   0.1112
B(  4-Au,  7-Au) :   0.1901 B(  4-Au, 10-Cr) :   0.8019 B(  5-Au,  6-Au) :   0.4041
B(  5-Au, 10-Cr) :   0.7828 B(  6-Au,  7-Au) :   0.1902 B(  6-Au, 10-Cr) :   0.8029
B(  7-Au,  8-Au) :   0.1927 B(  7-Au, 10-Cr) :   0.5204 B(  8-Au,  9-Au) :   0.4036
B(  8-Au, 10-Cr) :   0.8022 B(  9-Au, 10-Cr) :   0.7845

FINAL SINGLE POINT ENERGY     -2402.468993307738

DIPOLE MOMENT
-------------
                                X             Y             Z
Electronic contribution:      0.33542      -0.51133      -1.84953
Nuclear contribution   :     -0.33407       0.50920       1.84219
                        -----------------------------------------
Total Dipole Moment    :      0.00135      -0.00212      -0.00735
                        -----------------------------------------
Magnitude (a.u.)       :      0.00777
Magnitude (Debye)      :      0.01975

Rotational constants in cm-1:     0.002177     0.001594     0.001593
Rotational constants in MHz :    65.264761    47.787572    47.770293

                             ****ORCA TERMINATED NORMALLY****
TOTAL RUN TIME: 0 days 0 hours 16 minutes 10 seconds 785 msec
