                         Program Version 5.0.3 -  RELEASE  -
|  1> !R2SCAN def2-TZVP VERYSLOWCONV
|  2> !KDIIS
|  3> %scf
|  4>   AutoTRAHIter 200
|  5>   maxiter 400
|  6> end
|  7>
|  8> %pal nprocs 6 end
|  9>
| 10> *xyzfile 0 5 pbe.xyz
| 11>
| 12> $new_job
| 13>
| 14> !R2SCAN def2-TZVP VERYSLOWCONV
| 15> !KDIIS
| 16> %scf
| 17>   AutoTRAHIter 200
| 18>   maxiter 400
| 19> end
| 20>
| 21>
| 22> %pal nprocs 6 end
| 23>
| 24> *xyzfile 0 3 pbe.xyz
| 25>
| 26>
| 27>
| 28>
| 29>
| 30>                          ****END OF INPUT****
 Total Charge           Charge          ....    0
 Multiplicity           Mult            ....    5
 Number of Electrons    NEL             ....  214
FINAL SINGLE POINT ENERGY     -2402.860878065320

CARTESIAN COORDINATES (ANGSTROEM)
---------------------------------
  Au     7.798623    6.285975    5.170911
  Au     5.572559    7.652629    6.322152
  Au     6.030380    5.507326    9.812774
  Au     6.508558    4.846350    7.263255
  Au     5.078174    8.372378    8.852576
  Au     9.415951    5.892469    7.489944
  Au     9.006699    6.574609   10.045897
  Au     6.745623    7.945411   11.134792
  Au     8.052196    9.440198    9.084502
  Au     8.482725    8.695011    6.549240
  Cr     7.259591    7.135804    8.225311

 Multiplicity           Mult            ....    3
 Number of Electrons    NEL             ....  214
 Basis Dimension        Dim             ....  445

ORBITAL ENERGIES
----------------
                 SPIN UP ORBITALS
  NO   OCC          E(Eh)            E(eV)
   0   1.0000    -215.299770     -5858.6046
   1   1.0000     -24.604937      -669.5344
   2   1.0000     -20.872398      -567.9668
   3   1.0000     -20.871741      -567.9489
   4   1.0000     -20.871006      -567.9290
   5   1.0000      -4.109643      -111.8291
   6   1.0000      -4.109615      -111.8283
   7   1.0000      -4.108092      -111.7869
   8   1.0000      -4.108040      -111.7854
   9   1.0000      -4.107461      -111.7697
  10   1.0000      -4.107245      -111.7638
  11   1.0000      -4.106698      -111.7489
  12   1.0000      -4.106642      -111.7474
  13   1.0000      -4.105985      -111.7295
  14   1.0000      -4.105782      -111.7240
  15   1.0000      -2.915517       -79.3352
  16   1.0000      -2.300357       -62.5959
  17   1.0000      -2.300316       -62.5948
  18   1.0000      -2.299418       -62.5703
  19   1.0000      -2.299298       -62.5671
  20   1.0000      -2.298237       -62.5382
  21   1.0000      -2.298085       -62.5341
  22   1.0000      -2.297560       -62.5198
  23   1.0000      -2.297116       -62.5077
  24   1.0000      -2.296772       -62.4983
  25   1.0000      -2.296755       -62.4979
  26   1.0000      -2.296224       -62.4834
  27   1.0000      -2.296118       -62.4806
  28   1.0000      -2.295865       -62.4737
  29   1.0000      -2.294915       -62.4478
  30   1.0000      -2.294332       -62.4319
  31   1.0000      -2.294234       -62.4293
  32   1.0000      -2.294184       -62.4279
  33   1.0000      -2.292834       -62.3912
  34   1.0000      -2.292117       -62.3717
  35   1.0000      -2.291741       -62.3614
  36   1.0000      -2.291228       -62.3475
  37   1.0000      -2.290869       -62.3377
  38   1.0000      -2.288260       -62.2667
  39   1.0000      -2.287945       -62.2581
  40   1.0000      -2.287379       -62.2427
  41   1.0000      -2.287075       -62.2345
  42   1.0000      -2.286512       -62.2191
  43   1.0000      -2.286316       -62.2138
  44   1.0000      -2.285694       -62.1969
  45   1.0000      -2.285465       -62.1907
  46   1.0000      -1.863972       -50.7213
  47   1.0000      -1.862545       -50.6824
  48   1.0000      -1.858973       -50.5852
  49   1.0000      -0.410420       -11.1681
  50   1.0000      -0.372022       -10.1232
  51   1.0000      -0.367863       -10.0101
  52   1.0000      -0.358284        -9.7494
  53   1.0000      -0.355373        -9.6702
  54   1.0000      -0.354238        -9.6393
  55   1.0000      -0.351858        -9.5745
  56   1.0000      -0.350391        -9.5346
  57   1.0000      -0.350243        -9.5306
  58   1.0000      -0.348929        -9.4948
  59   1.0000      -0.343771        -9.3545
  60   1.0000      -0.343030        -9.3343
  61   1.0000      -0.339138        -9.2284
  62   1.0000      -0.332646        -9.0517
  63   1.0000      -0.332133        -9.0378
  64   1.0000      -0.328100        -8.9280
  65   1.0000      -0.320887        -8.7318
  66   1.0000      -0.315933        -8.5970
  67   1.0000      -0.314676        -8.5628
  68   1.0000      -0.314642        -8.5618
  69   1.0000      -0.313847        -8.5402
  70   1.0000      -0.306808        -8.3487
  71   1.0000      -0.305105        -8.3023
  72   1.0000      -0.303665        -8.2631
  73   1.0000      -0.295718        -8.0469
  74   1.0000      -0.294692        -8.0190
  75   1.0000      -0.294619        -8.0170
  76   1.0000      -0.294229        -8.0064
  77   1.0000      -0.291655        -7.9363
  78   1.0000      -0.289928        -7.8893
  79   1.0000      -0.288330        -7.8459
  80   1.0000      -0.288150        -7.8409
  81   1.0000      -0.280686        -7.6379
  82   1.0000      -0.277328        -7.5465
  83   1.0000      -0.275865        -7.5067
  84   1.0000      -0.272271        -7.4089
  85   1.0000      -0.265261        -7.2181
  86   1.0000      -0.265141        -7.2149
  87   1.0000      -0.264988        -7.2107
  88   1.0000      -0.264687        -7.2025
  89   1.0000      -0.264076        -7.1859
  90   1.0000      -0.263638        -7.1740
  91   1.0000      -0.261633        -7.1194
  92   1.0000      -0.258732        -7.0404
  93   1.0000      -0.258331        -7.0296
  94   1.0000      -0.254697        -6.9307
  95   1.0000      -0.253607        -6.9010
  96   1.0000      -0.252894        -6.8816
  97   1.0000      -0.251538        -6.8447
  98   1.0000      -0.250427        -6.8145
  99   1.0000      -0.242203        -6.5907
 100   1.0000      -0.236566        -6.4373
 101   1.0000      -0.234772        -6.3885
 102   1.0000      -0.231950        -6.3117
 103   1.0000      -0.223447        -6.0803
 104   1.0000      -0.221799        -6.0355
 105   1.0000      -0.211144        -5.7455
 106   1.0000      -0.206711        -5.6249
 107   1.0000      -0.203803        -5.5458
 108   0.0000      -0.181171        -4.9299
 109   0.0000      -0.152092        -4.1386
 110   0.0000      -0.149536        -4.0691
 111   0.0000      -0.148600        -4.0436
 112   0.0000      -0.099256        -2.7009

                 SPIN DOWN ORBITALS
  NO   OCC          E(Eh)            E(eV)
   0   1.0000    -215.299155     -5858.5879
   1   1.0000     -24.549185      -668.0173
   2   1.0000     -20.829345      -566.7953
   3   1.0000     -20.828748      -566.7790
   4   1.0000     -20.828105      -566.7615
   5   1.0000      -4.110154      -111.8430
   6   1.0000      -4.110072      -111.8407
   7   1.0000      -4.107269      -111.7645
   8   1.0000      -4.107205      -111.7627
   9   1.0000      -4.106652      -111.7477
  10   1.0000      -4.106425      -111.7415
  11   1.0000      -4.105819      -111.7250
  12   1.0000      -4.105756      -111.7233
  13   1.0000      -4.105121      -111.7060
  14   1.0000      -4.104915      -111.7004
  15   1.0000      -2.769214       -75.3542
  16   1.0000      -2.299027       -62.5597
  17   1.0000      -2.298973       -62.5582
  18   1.0000      -2.298158       -62.5361
  19   1.0000      -2.298094       -62.5343
  20   1.0000      -2.298016       -62.5322
  21   1.0000      -2.297896       -62.5289
  22   1.0000      -2.296747       -62.4977
  23   1.0000      -2.296329       -62.4863
  24   1.0000      -2.295855       -62.4734
  25   1.0000      -2.295607       -62.4666
  26   1.0000      -2.295422       -62.4616
  27   1.0000      -2.295043       -62.4513
  28   1.0000      -2.294746       -62.4432
  29   1.0000      -2.294438       -62.4348
  30   1.0000      -2.293934       -62.4211
  31   1.0000      -2.293412       -62.4069
  32   1.0000      -2.293223       -62.4018
  33   1.0000      -2.292661       -62.3865
  34   1.0000      -2.291066       -62.3431
  35   1.0000      -2.290810       -62.3361
  36   1.0000      -2.290213       -62.3199
  37   1.0000      -2.289969       -62.3132
  38   1.0000      -2.287414       -62.2437
  39   1.0000      -2.287106       -62.2353
  40   1.0000      -2.286472       -62.2181
  41   1.0000      -2.286175       -62.2100
  42   1.0000      -2.285597       -62.1943
  43   1.0000      -2.285406       -62.1891
  44   1.0000      -2.284720       -62.1704
  45   1.0000      -2.284493       -62.1642
  46   1.0000      -1.716986       -46.7216
  47   1.0000      -1.716483       -46.7079
  48   1.0000      -1.714673       -46.6586
  49   1.0000      -0.403834       -10.9889
  50   1.0000      -0.369268       -10.0483
  51   1.0000      -0.363347        -9.8872
  52   1.0000      -0.355532        -9.6745
  53   1.0000      -0.354979        -9.6595
  54   1.0000      -0.353468        -9.6184
  55   1.0000      -0.352573        -9.5940
  56   1.0000      -0.345134        -9.3916
  57   1.0000      -0.344527        -9.3751
  58   1.0000      -0.343349        -9.3430
  59   1.0000      -0.343220        -9.3395
  60   1.0000      -0.337475        -9.1832
  61   1.0000      -0.334799        -9.1103
  62   1.0000      -0.331967        -9.0333
  63   1.0000      -0.331656        -9.0248
  64   1.0000      -0.328962        -8.9515
  65   1.0000      -0.321967        -8.7612
  66   1.0000      -0.316786        -8.6202
  67   1.0000      -0.316063        -8.6005
  68   1.0000      -0.307417        -8.3653
  69   1.0000      -0.306599        -8.3430
  70   1.0000      -0.306220        -8.3327
  71   1.0000      -0.305067        -8.3013
  72   1.0000      -0.304565        -8.2876
  73   1.0000      -0.295254        -8.0343
  74   1.0000      -0.295225        -8.0335
  75   1.0000      -0.295093        -8.0299
  76   1.0000      -0.293471        -7.9857
  77   1.0000      -0.292793        -7.9673
  78   1.0000      -0.290227        -7.8975
  79   1.0000      -0.288233        -7.8432
  80   1.0000      -0.288060        -7.8385
  81   1.0000      -0.284759        -7.7487
  82   1.0000      -0.280887        -7.6433
  83   1.0000      -0.277542        -7.5523
  84   1.0000      -0.274336        -7.4651
  85   1.0000      -0.266852        -7.2614
  86   1.0000      -0.266772        -7.2592
  87   1.0000      -0.266548        -7.2531
  88   1.0000      -0.265465        -7.2237
  89   1.0000      -0.264238        -7.1903
  90   1.0000      -0.263463        -7.1692
  91   1.0000      -0.261753        -7.1227
  92   1.0000      -0.259357        -7.0575
  93   1.0000      -0.258573        -7.0361
  94   1.0000      -0.254356        -6.9214
  95   1.0000      -0.253754        -6.9050
  96   1.0000      -0.252208        -6.8629
  97   1.0000      -0.251884        -6.8541
  98   1.0000      -0.251829        -6.8526
  99   1.0000      -0.246053        -6.6954
 100   1.0000      -0.238219        -6.4823
 101   1.0000      -0.237325        -6.4579
 102   1.0000      -0.236153        -6.4261
 103   1.0000      -0.202902        -5.5212
 104   1.0000      -0.199473        -5.4279
 105   1.0000      -0.181396        -4.9360
 106   0.0000      -0.179224        -4.8769
 107   0.0000      -0.109898        -2.9905
 108   0.0000      -0.106229        -2.8906
 109   0.0000      -0.101363        -2.7582
 110   0.0000      -0.101052        -2.7498

MULLIKEN ATOMIC CHARGES AND SPIN POPULATIONS
--------------------------------------------
   0 Au:    0.401528   -0.310249
   1 Au:    0.309483   -0.025161
   2 Au:    0.336344   -0.041637
   3 Au:    0.305018   -0.041655
   4 Au:    0.339623   -0.025959
   5 Au:    0.310874   -0.025633
   6 Au:    0.339700   -0.025496
   7 Au:    0.419516   -0.314390
   8 Au:    0.336452   -0.041301
   9 Au:    0.306233   -0.041892
  10 Cr:   -3.404770    2.893374
Sum of atomic charges         :   -0.0000000

LOEWDIN ATOMIC CHARGES AND SPIN POPULATIONS
-------------------------------------------
   0 Au:    0.104351   -0.215077
   1 Au:    0.113677   -0.060750
   2 Au:    0.119727   -0.068695
   3 Au:    0.110859   -0.068435
   4 Au:    0.122041   -0.060669
   5 Au:    0.113515   -0.060829
   6 Au:    0.122167   -0.060711
   7 Au:    0.103261   -0.218888
   8 Au:    0.119253   -0.068645
   9 Au:    0.111284   -0.068201
  10 Cr:   -1.140134    2.950900

  Mayer bond orders larger than 0.100000
B(  0-Au,  1-Au) :   0.1889 B(  0-Au,  3-Au) :   0.1931 B(  0-Au,  5-Au) :   0.1880
B(  0-Au,  9-Au) :   0.1877 B(  0-Au, 10-Cr) :   0.4337 B(  1-Au,  4-Au) :   0.4077
B(  1-Au, 10-Cr) :   0.7602 B(  2-Au,  3-Au) :   0.3976 B(  2-Au,  7-Au) :   0.1776
B(  2-Au, 10-Cr) :   0.7975 B(  3-Au, 10-Cr) :   0.7761 B(  4-Au,  7-Au) :   0.1784
B(  4-Au, 10-Cr) :   0.7787 B(  5-Au,  6-Au) :   0.4071 B(  5-Au, 10-Cr) :   0.7592
B(  6-Au,  7-Au) :   0.1789 B(  6-Au, 10-Cr) :   0.7797 B(  7-Au,  8-Au) :   0.1827
B(  7-Au, 10-Cr) :   0.4761 B(  8-Au,  9-Au) :   0.3967 B(  8-Au, 10-Cr) :   0.7959
B(  9-Au, 10-Cr) :   0.7781

FINAL SINGLE POINT ENERGY     -2402.854980341551

DIPOLE MOMENT
-------------
                                X             Y             Z
Electronic contribution:      0.33588      -0.51191      -1.85202
Nuclear contribution   :     -0.33407       0.50920       1.84219
                        -----------------------------------------
Total Dipole Moment    :      0.00182      -0.00271      -0.00984
                        -----------------------------------------
Magnitude (a.u.)       :      0.01037
Magnitude (Debye)      :      0.02635

Rotational constants in cm-1:     0.002177     0.001594     0.001593
Rotational constants in MHz :    65.264761    47.787572    47.770293

                             ****ORCA TERMINATED NORMALLY****
TOTAL RUN TIME: 0 days 0 hours 4 minutes 30 seconds 752 msec
