                         Program Version 5.0.3 -  RELEASE  -
|  1> %pal nprocs 1 end
|  2>
|  3> !PBE def2-TZVP OPT UNO
|  4> !SLOWCONV
|  5>
|  6> *xyzfile 0 6 6.xyz                           ****END OF INPUT****
 Total Charge           Charge          ....    0
 Multiplicity           Mult            ....    6
 Number of Electrons    NEL             ....  311
FINAL SINGLE POINT ENERGY     -3300.904441145820
FINAL SINGLE POINT ENERGY     -3300.906272187784
FINAL SINGLE POINT ENERGY     -3300.906848274805
FINAL SINGLE POINT ENERGY     -3300.907684434228
FINAL SINGLE POINT ENERGY     -3300.908634325674
FINAL SINGLE POINT ENERGY     -3300.909680323476
FINAL SINGLE POINT ENERGY     -3300.910396491790
FINAL SINGLE POINT ENERGY     -3300.910856354698
FINAL SINGLE POINT ENERGY     -3300.911155513809
FINAL SINGLE POINT ENERGY     -3300.911313201286
FINAL SINGLE POINT ENERGY     -3300.911346293623
FINAL SINGLE POINT ENERGY     -3300.911364115551
FINAL SINGLE POINT ENERGY     -3300.911375593778
FINAL SINGLE POINT ENERGY     -3300.911381372008
FINAL SINGLE POINT ENERGY     -3300.911384877549
FINAL SINGLE POINT ENERGY     -3300.911389153429
FINAL SINGLE POINT ENERGY     -3300.911392833507
                    ***********************HURRAY********************

CARTESIAN COORDINATES (ANGSTROEM)
---------------------------------
  Au     7.411493   11.009542    8.137833
  Au     6.017000    8.958312    9.518620
  Au     8.715145    9.547989   10.037531
  Au     8.100270    6.853711   10.058174
  Au    10.411041    7.779014    8.759683
  Au     8.276908   10.136436    5.635863
  Au    10.117022    8.159883    6.038983
  Au     5.720843    9.548836    6.511235
  Au     7.571372    4.376060    8.946106
  Au     3.906256    8.039864    7.951591
  Au     5.530676    6.234363    9.158141
  Au     7.550278    7.440927    5.157984
  Au     6.420407    5.350783    6.620299
  Au     9.109563    5.855048    7.184561
  Au     4.799944    7.176561    5.433964
  Fe     7.886525    8.272502    7.701371

 Multiplicity           Mult            ....    6
 Number of Electrons    NEL             ....  311
 Basis Dimension        Dim             ....  645

ORBITAL ENERGIES
----------------
                 SPIN UP ORBITALS
  NO   OCC          E(Eh)            E(eV)
   0   1.0000    -254.775131     -6932.7838
   1   1.0000     -29.614001      -805.8379
   2   1.0000     -25.551112      -695.2811
   3   1.0000     -25.550744      -695.2711
   4   1.0000     -25.544690      -695.1064
   5   1.0000      -4.037095      -109.8549
   6   1.0000      -4.037085      -109.8547
   7   1.0000      -4.035035      -109.7989
   8   1.0000      -4.035003      -109.7980
   9   1.0000      -4.035000      -109.7979
  10   1.0000      -4.029740      -109.6548
  11   1.0000      -4.029661      -109.6526
  12   1.0000      -4.026332      -109.5621
  13   1.0000      -4.026162      -109.5574
  14   1.0000      -4.026008      -109.5533
  15   1.0000      -4.025645      -109.5434
  16   1.0000      -4.024982      -109.5253
  17   1.0000      -4.024789      -109.5201
  18   1.0000      -4.021629      -109.4341
  19   1.0000      -4.021504      -109.4307
  20   1.0000      -3.394867       -92.3790
  21   1.0000      -2.253420       -61.3187
  22   1.0000      -2.253353       -61.3168
  23   1.0000      -2.252464       -61.2926
  24   1.0000      -2.252070       -61.2819
  25   1.0000      -2.251949       -61.2787
  26   1.0000      -2.250399       -61.2365
  27   1.0000      -2.250378       -61.2359
  28   1.0000      -2.247816       -61.1662
  29   1.0000      -2.247549       -61.1589
  30   1.0000      -2.246841       -61.1397
  31   1.0000      -2.246461       -61.1293
  32   1.0000      -2.246132       -61.1204
  33   1.0000      -2.244851       -61.0855
  34   1.0000      -2.244701       -61.0814
  35   1.0000      -2.244319       -61.0710
  36   1.0000      -2.244282       -61.0700
  37   1.0000      -2.244206       -61.0680
  38   1.0000      -2.244193       -61.0676
  39   1.0000      -2.244059       -61.0639
  40   1.0000      -2.243688       -61.0538
  41   1.0000      -2.242563       -61.0232
  42   1.0000      -2.241423       -60.9922
  43   1.0000      -2.240793       -60.9751
  44   1.0000      -2.240710       -60.9728
  45   1.0000      -2.239894       -60.9506
  46   1.0000      -2.239866       -60.9498
  47   1.0000      -2.239627       -60.9433
  48   1.0000      -2.239057       -60.9278
  49   1.0000      -2.238916       -60.9240
  50   1.0000      -2.238285       -60.9068
  51   1.0000      -2.238240       -60.9056
  52   1.0000      -2.237976       -60.8984
  53   1.0000      -2.237532       -60.8863
  54   1.0000      -2.237042       -60.8730
  55   1.0000      -2.236748       -60.8650
  56   1.0000      -2.236356       -60.8543
  57   1.0000      -2.235684       -60.8361
  58   1.0000      -2.235368       -60.8275
  59   1.0000      -2.235221       -60.8234
  60   1.0000      -2.234631       -60.8074
  61   1.0000      -2.234316       -60.7988
  62   1.0000      -2.234211       -60.7960
  63   1.0000      -2.233005       -60.7631
  64   1.0000      -2.232489       -60.7491
  65   1.0000      -2.231237       -60.7150
  66   1.0000      -2.212948       -60.2174
  67   1.0000      -2.212440       -60.2036
  68   1.0000      -2.199396       -59.8486
  69   1.0000      -0.437769       -11.9123
  70   1.0000      -0.395416       -10.7598
  71   1.0000      -0.395154       -10.7527
  72   1.0000      -0.391221       -10.6457
  73   1.0000      -0.384412       -10.4604
  74   1.0000      -0.383986       -10.4488
  75   1.0000      -0.372958       -10.1487
  76   1.0000      -0.371020       -10.0960
  77   1.0000      -0.369264       -10.0482
  78   1.0000      -0.366134        -9.9630
  79   1.0000      -0.365398        -9.9430
  80   1.0000      -0.361668        -9.8415
  81   1.0000      -0.357029        -9.7152
  82   1.0000      -0.355442        -9.6721
  83   1.0000      -0.353904        -9.6302
  84   1.0000      -0.352836        -9.6012
  85   1.0000      -0.350629        -9.5411
  86   1.0000      -0.348873        -9.4933
  87   1.0000      -0.348663        -9.4876
  88   1.0000      -0.344153        -9.3649
  89   1.0000      -0.343116        -9.3367
  90   1.0000      -0.337948        -9.1960
  91   1.0000      -0.336867        -9.1666
  92   1.0000      -0.336485        -9.1562
  93   1.0000      -0.334199        -9.0940
  94   1.0000      -0.332246        -9.0409
  95   1.0000      -0.330759        -9.0004
  96   1.0000      -0.328313        -8.9339
  97   1.0000      -0.326043        -8.8721
  98   1.0000      -0.324381        -8.8269
  99   1.0000      -0.323249        -8.7961
 100   1.0000      -0.322282        -8.7697
 101   1.0000      -0.321665        -8.7529
 102   1.0000      -0.318787        -8.6746
 103   1.0000      -0.314155        -8.5486
 104   1.0000      -0.310203        -8.4410
 105   1.0000      -0.309995        -8.4354
 106   1.0000      -0.307112        -8.3569
 107   1.0000      -0.303253        -8.2519
 108   1.0000      -0.300410        -8.1746
 109   1.0000      -0.298662        -8.1270
 110   1.0000      -0.293556        -7.9881
 111   1.0000      -0.292738        -7.9658
 112   1.0000      -0.292127        -7.9492
 113   1.0000      -0.290364        -7.9012
 114   1.0000      -0.288360        -7.8467
 115   1.0000      -0.285511        -7.7691
 116   1.0000      -0.282549        -7.6885
 117   1.0000      -0.281091        -7.6489
 118   1.0000      -0.280714        -7.6386
 119   1.0000      -0.279294        -7.6000
 120   1.0000      -0.276868        -7.5340
 121   1.0000      -0.276713        -7.5298
 122   1.0000      -0.275003        -7.4832
 123   1.0000      -0.274825        -7.4784
 124   1.0000      -0.274024        -7.4566
 125   1.0000      -0.273373        -7.4389
 126   1.0000      -0.272199        -7.4069
 127   1.0000      -0.270065        -7.3488
 128   1.0000      -0.269437        -7.3317
 129   1.0000      -0.266991        -7.2652
 130   1.0000      -0.266622        -7.2552
 131   1.0000      -0.265454        -7.2234
 132   1.0000      -0.264367        -7.1938
 133   1.0000      -0.261595        -7.1184
 134   1.0000      -0.261299        -7.1103
 135   1.0000      -0.260574        -7.0906
 136   1.0000      -0.260431        -7.0867
 137   1.0000      -0.259009        -7.0480
 138   1.0000      -0.257619        -7.0102
 139   1.0000      -0.256982        -6.9928
 140   1.0000      -0.256534        -6.9806
 141   1.0000      -0.254279        -6.9193
 142   1.0000      -0.252742        -6.8774
 143   1.0000      -0.251169        -6.8346
 144   1.0000      -0.250434        -6.8147
 145   1.0000      -0.248418        -6.7598
 146   1.0000      -0.247636        -6.7385
 147   1.0000      -0.246825        -6.7165
 148   1.0000      -0.244996        -6.6667
 149   1.0000      -0.244400        -6.6505
 150   1.0000      -0.243275        -6.6199
 151   1.0000      -0.235612        -6.4113
 152   1.0000      -0.228156        -6.2084
 153   1.0000      -0.227898        -6.2014
 154   1.0000      -0.215499        -5.8640
 155   1.0000      -0.202903        -5.5213
 156   1.0000      -0.200640        -5.4597
 157   1.0000      -0.188604        -5.1322
 158   0.0000      -0.156759        -4.2656
 159   0.0000      -0.142719        -3.8836
 160   0.0000      -0.134660        -3.6643
 161   0.0000      -0.130625        -3.5545
 162   0.0000      -0.124060        -3.3758

                 SPIN DOWN ORBITALS
  NO   OCC          E(Eh)            E(eV)
   0   1.0000    -254.774379     -6932.7633
   1   1.0000     -29.551833      -804.1463
   2   1.0000     -25.503149      -693.9760
   3   1.0000     -25.503033      -693.9728
   4   1.0000     -25.499491      -693.8764
   5   1.0000      -4.035776      -109.8191
   6   1.0000      -4.035762      -109.8187
   7   1.0000      -4.033832      -109.7661
   8   1.0000      -4.033799      -109.7653
   9   1.0000      -4.033687      -109.7622
  10   1.0000      -4.029010      -109.6349
  11   1.0000      -4.028936      -109.6329
  12   1.0000      -4.025692      -109.5446
  13   1.0000      -4.025404      -109.5368
  14   1.0000      -4.025252      -109.5327
  15   1.0000      -4.024832      -109.5213
  16   1.0000      -4.024401      -109.5095
  17   1.0000      -4.024210      -109.5043
  18   1.0000      -4.021067      -109.4188
  19   1.0000      -4.020946      -109.4155
  20   1.0000      -3.254480       -88.5589
  21   1.0000      -2.251734       -61.2728
  22   1.0000      -2.251658       -61.2707
  23   1.0000      -2.250793       -61.2472
  24   1.0000      -2.250611       -61.2422
  25   1.0000      -2.250507       -61.2394
  26   1.0000      -2.248666       -61.1893
  27   1.0000      -2.248645       -61.1887
  28   1.0000      -2.246324       -61.1256
  29   1.0000      -2.246178       -61.1216
  30   1.0000      -2.245602       -61.1059
  31   1.0000      -2.245463       -61.1022
  32   1.0000      -2.244675       -61.0807
  33   1.0000      -2.244020       -61.0629
  34   1.0000      -2.243917       -61.0601
  35   1.0000      -2.243704       -61.0543
  36   1.0000      -2.243624       -61.0521
  37   1.0000      -2.243311       -61.0436
  38   1.0000      -2.243147       -61.0391
  39   1.0000      -2.243049       -61.0365
  40   1.0000      -2.242958       -61.0340
  41   1.0000      -2.241924       -61.0059
  42   1.0000      -2.240513       -60.9675
  43   1.0000      -2.239996       -60.9534
  44   1.0000      -2.239800       -60.9480
  45   1.0000      -2.239103       -60.9291
  46   1.0000      -2.238840       -60.9219
  47   1.0000      -2.238591       -60.9152
  48   1.0000      -2.238430       -60.9108
  49   1.0000      -2.238222       -60.9051
  50   1.0000      -2.237735       -60.8919
  51   1.0000      -2.237591       -60.8879
  52   1.0000      -2.237257       -60.8789
  53   1.0000      -2.236778       -60.8658
  54   1.0000      -2.236319       -60.8533
  55   1.0000      -2.236290       -60.8526
  56   1.0000      -2.235491       -60.8308
  57   1.0000      -2.235217       -60.8233
  58   1.0000      -2.234519       -60.8043
  59   1.0000      -2.234375       -60.8004
  60   1.0000      -2.234033       -60.7911
  61   1.0000      -2.233658       -60.7809
  62   1.0000      -2.233509       -60.7769
  63   1.0000      -2.232317       -60.7444
  64   1.0000      -2.231985       -60.7354
  65   1.0000      -2.230610       -60.6980
  66   1.0000      -2.072561       -56.3973
  67   1.0000      -2.072462       -56.3946
  68   1.0000      -2.067378       -56.2562
  69   1.0000      -0.432228       -11.7615
  70   1.0000      -0.393273       -10.7015
  71   1.0000      -0.393035       -10.6950
  72   1.0000      -0.387726       -10.5506
  73   1.0000      -0.377017       -10.2591
  74   1.0000      -0.375441       -10.2163
  75   1.0000      -0.366895        -9.9837
  76   1.0000      -0.366170        -9.9640
  77   1.0000      -0.365880        -9.9561
  78   1.0000      -0.361073        -9.8253
  79   1.0000      -0.359225        -9.7750
  80   1.0000      -0.354538        -9.6475
  81   1.0000      -0.353685        -9.6243
  82   1.0000      -0.351989        -9.5781
  83   1.0000      -0.350527        -9.5383
  84   1.0000      -0.348986        -9.4964
  85   1.0000      -0.348411        -9.4807
  86   1.0000      -0.347297        -9.4504
  87   1.0000      -0.344960        -9.3869
  88   1.0000      -0.342088        -9.3087
  89   1.0000      -0.340420        -9.2633
  90   1.0000      -0.335641        -9.1333
  91   1.0000      -0.334609        -9.1052
  92   1.0000      -0.333097        -9.0640
  93   1.0000      -0.332052        -9.0356
  94   1.0000      -0.328174        -8.9301
  95   1.0000      -0.327839        -8.9210
  96   1.0000      -0.325594        -8.8599
  97   1.0000      -0.324497        -8.8300
  98   1.0000      -0.321725        -8.7546
  99   1.0000      -0.318829        -8.6758
 100   1.0000      -0.317188        -8.6311
 101   1.0000      -0.312683        -8.5085
 102   1.0000      -0.306762        -8.3474
 103   1.0000      -0.305335        -8.3086
 104   1.0000      -0.304634        -8.2895
 105   1.0000      -0.303674        -8.2634
 106   1.0000      -0.298196        -8.1143
 107   1.0000      -0.296649        -8.0722
 108   1.0000      -0.294681        -8.0187
 109   1.0000      -0.294442        -8.0122
 110   1.0000      -0.291615        -7.9353
 111   1.0000      -0.289695        -7.8830
 112   1.0000      -0.287881        -7.8337
 113   1.0000      -0.284204        -7.7336
 114   1.0000      -0.283280        -7.7085
 115   1.0000      -0.282102        -7.6764
 116   1.0000      -0.278920        -7.5898
 117   1.0000      -0.277162        -7.5420
 118   1.0000      -0.276540        -7.5250
 119   1.0000      -0.275464        -7.4958
 120   1.0000      -0.274104        -7.4587
 121   1.0000      -0.273471        -7.4415
 122   1.0000      -0.273051        -7.4301
 123   1.0000      -0.272550        -7.4165
 124   1.0000      -0.270281        -7.3547
 125   1.0000      -0.269548        -7.3348
 126   1.0000      -0.266711        -7.2576
 127   1.0000      -0.266619        -7.2551
 128   1.0000      -0.265075        -7.2131
 129   1.0000      -0.264899        -7.2083
 130   1.0000      -0.263425        -7.1682
 131   1.0000      -0.262239        -7.1359
 132   1.0000      -0.259193        -7.0530
 133   1.0000      -0.257303        -7.0016
 134   1.0000      -0.255949        -6.9647
 135   1.0000      -0.255283        -6.9466
 136   1.0000      -0.252956        -6.8833
 137   1.0000      -0.250811        -6.8249
 138   1.0000      -0.250071        -6.8048
 139   1.0000      -0.248958        -6.7745
 140   1.0000      -0.247316        -6.7298
 141   1.0000      -0.246540        -6.7087
 142   1.0000      -0.245753        -6.6873
 143   1.0000      -0.243847        -6.6354
 144   1.0000      -0.243280        -6.6200
 145   1.0000      -0.241972        -6.5844
 146   1.0000      -0.234666        -6.3856
 147   1.0000      -0.229823        -6.2538
 148   1.0000      -0.226971        -6.1762
 149   1.0000      -0.218168        -5.9367
 150   1.0000      -0.211273        -5.7490
 151   1.0000      -0.209597        -5.7034
 152   1.0000      -0.197170        -5.3653
 153   0.0000      -0.177551        -4.8314
 154   0.0000      -0.171180        -4.6580
 155   0.0000      -0.169540        -4.6134
 156   0.0000      -0.166380        -4.5274
 157   0.0000      -0.164192        -4.4679

MULLIKEN ATOMIC CHARGES AND SPIN POPULATIONS
--------------------------------------------
   0 Au:    0.345809    0.106386
   1 Au:   -0.027271    0.119390
   2 Au:    0.391169    0.093401
   3 Au:   -0.100043    0.149343
   4 Au:    0.309511    0.088582
   5 Au:    0.346565    0.106442
   6 Au:    0.391170    0.093125
   7 Au:   -0.272453    0.155224
   8 Au:    0.485783    0.098731
   9 Au:    0.324545    0.104536
  10 Au:   -0.117761    0.132291
  11 Au:   -0.029512    0.118795
  12 Au:   -0.107879    0.131959
  13 Au:   -0.102330    0.149729
  14 Au:    0.320215    0.103323
  15 Fe:   -2.157517    3.248742
Sum of atomic charges         :    0.0000000

LOEWDIN ATOMIC CHARGES AND SPIN POPULATIONS
-------------------------------------------
   0 Au:    0.073882    0.093050
   1 Au:    0.005978    0.101624
   2 Au:    0.077890    0.083959
   3 Au:   -0.015843    0.110746
   4 Au:    0.072646    0.087192
   5 Au:    0.073770    0.092984
   6 Au:    0.078509    0.083671
   7 Au:   -0.047052    0.120379
   8 Au:    0.104221    0.118292
   9 Au:    0.056378    0.118705
  10 Au:   -0.039460    0.128135
  11 Au:    0.005160    0.101365
  12 Au:   -0.037885    0.127772
  13 Au:   -0.015770    0.110934
  14 Au:    0.054822    0.117751
  15 Fe:   -0.447247    3.403440

  Mayer bond orders larger than 0.100000
B(  0-Au,  1-Au) :   0.1710 B(  0-Au,  2-Au) :   0.2362 B(  0-Au,  5-Au) :   0.1869
B(  0-Au,  7-Au) :   0.2548 B(  0-Au, 15-Fe) :   0.4053 B(  1-Au,  2-Au) :   0.2093
B(  1-Au,  3-Au) :   0.1215 B(  1-Au,  7-Au) :   0.1360 B(  1-Au,  9-Au) :   0.2660
B(  1-Au, 10-Au) :   0.2379 B(  1-Au, 15-Fe) :   0.5801 B(  2-Au,  3-Au) :   0.2475
B(  2-Au,  4-Au) :   0.2197 B(  2-Au, 15-Fe) :   0.4032 B(  3-Au,  4-Au) :   0.1758
B(  3-Au,  8-Au) :   0.2715 B(  3-Au, 10-Au) :   0.2572 B(  3-Au, 13-Au) :   0.1621
B(  3-Au, 15-Fe) :   0.5370 B(  4-Au,  6-Au) :   0.2188 B(  4-Au, 13-Au) :   0.1766
B(  4-Au, 15-Fe) :   0.4416 B(  5-Au,  6-Au) :   0.2349 B(  5-Au,  7-Au) :   0.2524
B(  5-Au, 11-Au) :   0.1730 B(  5-Au, 15-Fe) :   0.4064 B(  6-Au, 11-Au) :   0.2105
B(  6-Au, 13-Au) :   0.2471 B(  6-Au, 15-Fe) :   0.4042 B(  7-Au,  9-Au) :   0.3075
B(  7-Au, 11-Au) :   0.1335 B(  7-Au, 14-Au) :   0.3081 B(  7-Au, 15-Fe) :   0.5112
B(  8-Au, 10-Au) :   0.2910 B(  8-Au, 12-Au) :   0.2873 B(  8-Au, 13-Au) :   0.2712
B(  9-Au, 10-Au) :   0.3713 B(  9-Au, 14-Au) :   0.2428 B( 10-Au, 12-Au) :   0.2895
B( 10-Au, 15-Fe) :   0.2074 B( 11-Au, 12-Au) :   0.2385 B( 11-Au, 13-Au) :   0.1216
B( 11-Au, 14-Au) :   0.2692 B( 11-Au, 15-Fe) :   0.5800 B( 12-Au, 13-Au) :   0.2574
B( 12-Au, 14-Au) :   0.3670 B( 12-Au, 15-Fe) :   0.2064 B( 13-Au, 15-Fe) :   0.5374

FINAL SINGLE POINT ENERGY     -3300.911394670538

DIPOLE MOMENT
-------------
                                X             Y             Z
Electronic contribution:    -21.95471     -19.46772      -0.90155
Nuclear contribution   :     22.01926      19.42102       0.94297
                        -----------------------------------------
Total Dipole Moment    :      0.06456      -0.04670       0.04142
                        -----------------------------------------
Magnitude (a.u.)       :      0.08980
Magnitude (Debye)      :      0.22825

Rotational constants in cm-1:     0.000974     0.000940     0.000844
Rotational constants in MHz :    29.187665    28.182804    25.288843

                             ****ORCA TERMINATED NORMALLY****
TOTAL RUN TIME: 0 days 3 hours 33 minutes 10 seconds 356 msec
