                         Program Version 5.0.3 -  RELEASE  -
|  1> %pal nprocs 1 end
|  2>
|  3> !PBE def2-TZVP OPT UNO
|  4> !SLOWCONV
|  5>
|  6> *xyzfile 0 3 0.xyz                           ****END OF INPUT****
 Total Charge           Charge          ....    0
 Multiplicity           Mult            ....    3
 Number of Electrons    NEL             ....  330
FINAL SINGLE POINT ENERGY     -3436.726766851235
FINAL SINGLE POINT ENERGY     -3436.729552370216
FINAL SINGLE POINT ENERGY     -3436.730020781607
FINAL SINGLE POINT ENERGY     -3436.730169104261
FINAL SINGLE POINT ENERGY     -3436.730304306815
FINAL SINGLE POINT ENERGY     -3436.730378912733
FINAL SINGLE POINT ENERGY     -3436.730398499210
FINAL SINGLE POINT ENERGY     -3436.730422345531
FINAL SINGLE POINT ENERGY     -3436.730452770371
FINAL SINGLE POINT ENERGY     -3436.730466981871
FINAL SINGLE POINT ENERGY     -3436.730487013899
FINAL SINGLE POINT ENERGY     -3436.730527022088
FINAL SINGLE POINT ENERGY     -3436.730551630277
FINAL SINGLE POINT ENERGY     -3436.730591031378
FINAL SINGLE POINT ENERGY     -3436.730621171903
FINAL SINGLE POINT ENERGY     -3436.730638202222
FINAL SINGLE POINT ENERGY     -3436.730648843734
FINAL SINGLE POINT ENERGY     -3436.730655892587
FINAL SINGLE POINT ENERGY     -3436.730659000120
                    ***********************HURRAY********************

CARTESIAN COORDINATES (ANGSTROEM)
---------------------------------
  Au     8.757245    7.215933    9.705132
  Au     8.599395    5.250916    7.683042
  Au     6.203545    8.366468   10.065624
  Au     4.424372    7.069683    8.297387
  Au     5.310491    9.658294    7.709652
  Au     5.195190    7.622967    5.620011
  Au     5.877405    5.155306    6.795759
  Au     9.698205   10.472123    6.415092
  Au     7.160616   11.495522    6.794634
  Au     8.030861   10.882855    4.191048
  Au     5.383989   10.347029    4.998123
  Au     9.716988    7.757970    7.083410
  Au     6.855569    8.434049    3.541116
  Au     7.828078    6.502203    5.275027
  Au     9.536012    8.516414    4.410748
  Au     8.214947    9.763483    8.668807
  Fe     7.003416    7.405863    7.733700

 Multiplicity           Mult            ....    3
 Number of Electrons    NEL             ....  330
 Basis Dimension        Dim             ....  685

ORBITAL ENERGIES
----------------
                 SPIN UP ORBITALS
  NO   OCC          E(Eh)            E(eV)
   0   1.0000    -254.737178     -6931.7510
   1   1.0000     -29.566918      -804.5567
   2   1.0000     -25.506232      -694.0599
   3   1.0000     -25.505182      -694.0313
   4   1.0000     -25.499415      -693.8744
   5   1.0000      -4.037542      -109.8671
   6   1.0000      -4.033775      -109.7646
   7   1.0000      -4.032192      -109.7215
   8   1.0000      -4.032174      -109.7210
   9   1.0000      -4.031665      -109.7072
  10   1.0000      -4.031092      -109.6916
  11   1.0000      -4.030725      -109.6816
  12   1.0000      -4.029997      -109.6618
  13   1.0000      -4.028217      -109.6134
  14   1.0000      -4.027080      -109.5824
  15   1.0000      -4.022516      -109.4582
  16   1.0000      -4.020136      -109.3935
  17   1.0000      -4.019840      -109.3854
  18   1.0000      -4.019731      -109.3825
  19   1.0000      -4.019189      -109.3677
  20   1.0000      -4.014842      -109.2494
  21   1.0000      -3.341220       -90.9192
  22   1.0000      -2.253952       -61.3331
  23   1.0000      -2.250235       -61.2320
  24   1.0000      -2.249961       -61.2245
  25   1.0000      -2.249455       -61.2108
  26   1.0000      -2.249055       -61.1999
  27   1.0000      -2.248530       -61.1856
  28   1.0000      -2.247925       -61.1691
  29   1.0000      -2.247131       -61.1475
  30   1.0000      -2.246390       -61.1274
  31   1.0000      -2.246257       -61.1238
  32   1.0000      -2.245799       -61.1113
  33   1.0000      -2.245183       -61.0945
  34   1.0000      -2.244536       -61.0769
  35   1.0000      -2.244300       -61.0705
  36   1.0000      -2.244133       -61.0660
  37   1.0000      -2.243555       -61.0502
  38   1.0000      -2.243385       -61.0456
  39   1.0000      -2.242941       -61.0335
  40   1.0000      -2.242533       -61.0224
  41   1.0000      -2.242347       -61.0174
  42   1.0000      -2.242128       -61.0114
  43   1.0000      -2.241595       -60.9969
  44   1.0000      -2.241352       -60.9903
  45   1.0000      -2.241023       -60.9813
  46   1.0000      -2.240903       -60.9781
  47   1.0000      -2.240630       -60.9706
  48   1.0000      -2.239897       -60.9507
  49   1.0000      -2.239350       -60.9358
  50   1.0000      -2.238457       -60.9115
  51   1.0000      -2.238325       -60.9079
  52   1.0000      -2.237107       -60.8748
  53   1.0000      -2.237081       -60.8741
  54   1.0000      -2.236221       -60.8507
  55   1.0000      -2.235322       -60.8262
  56   1.0000      -2.234838       -60.8130
  57   1.0000      -2.234475       -60.8032
  58   1.0000      -2.234043       -60.7914
  59   1.0000      -2.233902       -60.7876
  60   1.0000      -2.233361       -60.7728
  61   1.0000      -2.232951       -60.7617
  62   1.0000      -2.231554       -60.7237
  63   1.0000      -2.230562       -60.6967
  64   1.0000      -2.230300       -60.6896
  65   1.0000      -2.229122       -60.6575
  66   1.0000      -2.228485       -60.6402
  67   1.0000      -2.228353       -60.6366
  68   1.0000      -2.228095       -60.6295
  69   1.0000      -2.223156       -60.4951
  70   1.0000      -2.161103       -58.8066
  71   1.0000      -2.158983       -58.7489
  72   1.0000      -2.147421       -58.4343
  73   1.0000      -0.432612       -11.7720
  74   1.0000      -0.392793       -10.6884
  75   1.0000      -0.392170       -10.6715
  76   1.0000      -0.386542       -10.5183
  77   1.0000      -0.382776       -10.4159
  78   1.0000      -0.379389       -10.3237
  79   1.0000      -0.365280        -9.9398
  80   1.0000      -0.361473        -9.8362
  81   1.0000      -0.360711        -9.8154
  82   1.0000      -0.360001        -9.7961
  83   1.0000      -0.359587        -9.7849
  84   1.0000      -0.358571        -9.7572
  85   1.0000      -0.353815        -9.6278
  86   1.0000      -0.353397        -9.6164
  87   1.0000      -0.351990        -9.5781
  88   1.0000      -0.350084        -9.5263
  89   1.0000      -0.347385        -9.4528
  90   1.0000      -0.346269        -9.4225
  91   1.0000      -0.343226        -9.3397
  92   1.0000      -0.342559        -9.3215
  93   1.0000      -0.342362        -9.3162
  94   1.0000      -0.341544        -9.2939
  95   1.0000      -0.340374        -9.2620
  96   1.0000      -0.338439        -9.2094
  97   1.0000      -0.337667        -9.1884
  98   1.0000      -0.337296        -9.1783
  99   1.0000      -0.334074        -9.0906
 100   1.0000      -0.326866        -8.8945
 101   1.0000      -0.326621        -8.8878
 102   1.0000      -0.324058        -8.8181
 103   1.0000      -0.321666        -8.7530
 104   1.0000      -0.320669        -8.7258
 105   1.0000      -0.319507        -8.6942
 106   1.0000      -0.319057        -8.6820
 107   1.0000      -0.317063        -8.6277
 108   1.0000      -0.316758        -8.6194
 109   1.0000      -0.313347        -8.5266
 110   1.0000      -0.309401        -8.4192
 111   1.0000      -0.306551        -8.3417
 112   1.0000      -0.305278        -8.3071
 113   1.0000      -0.304887        -8.2964
 114   1.0000      -0.304490        -8.2856
 115   1.0000      -0.298385        -8.1195
 116   1.0000      -0.298264        -8.1162
 117   1.0000      -0.291729        -7.9383
 118   1.0000      -0.284944        -7.7537
 119   1.0000      -0.284615        -7.7448
 120   1.0000      -0.284118        -7.7312
 121   1.0000      -0.283818        -7.7231
 122   1.0000      -0.279352        -7.6016
 123   1.0000      -0.279312        -7.6005
 124   1.0000      -0.278136        -7.5685
 125   1.0000      -0.276714        -7.5298
 126   1.0000      -0.275395        -7.4939
 127   1.0000      -0.275045        -7.4844
 128   1.0000      -0.274526        -7.4702
 129   1.0000      -0.272870        -7.4252
 130   1.0000      -0.272117        -7.4047
 131   1.0000      -0.271492        -7.3877
 132   1.0000      -0.270208        -7.3527
 133   1.0000      -0.267604        -7.2819
 134   1.0000      -0.267284        -7.2732
 135   1.0000      -0.264815        -7.2060
 136   1.0000      -0.262500        -7.1430
 137   1.0000      -0.261492        -7.1156
 138   1.0000      -0.260783        -7.0963
 139   1.0000      -0.259551        -7.0627
 140   1.0000      -0.258159        -7.0249
 141   1.0000      -0.257662        -7.0113
 142   1.0000      -0.257232        -6.9996
 143   1.0000      -0.256645        -6.9837
 144   1.0000      -0.255228        -6.9451
 145   1.0000      -0.252951        -6.8831
 146   1.0000      -0.251570        -6.8456
 147   1.0000      -0.251458        -6.8425
 148   1.0000      -0.248249        -6.7552
 149   1.0000      -0.247521        -6.7354
 150   1.0000      -0.247145        -6.7252
 151   1.0000      -0.246792        -6.7156
 152   1.0000      -0.245230        -6.6731
 153   1.0000      -0.243326        -6.6212
 154   1.0000      -0.240492        -6.5441
 155   1.0000      -0.240144        -6.5347
 156   1.0000      -0.239184        -6.5085
 157   1.0000      -0.235964        -6.4209
 158   1.0000      -0.235318        -6.4033
 159   1.0000      -0.228259        -6.2112
 160   1.0000      -0.226546        -6.1646
 161   1.0000      -0.225088        -6.1249
 162   1.0000      -0.215536        -5.8650
 163   1.0000      -0.214355        -5.8329
 164   1.0000      -0.207768        -5.6536
 165   1.0000      -0.200424        -5.4538
 166   0.0000      -0.194899        -5.3035
 167   0.0000      -0.145981        -3.9723
 168   0.0000      -0.144056        -3.9200
 169   0.0000      -0.142337        -3.8732
 170   0.0000      -0.138957        -3.7812

                 SPIN DOWN ORBITALS
  NO   OCC          E(Eh)            E(eV)
   0   1.0000    -254.736624     -6931.7359
   1   1.0000     -29.518663      -803.2437
   2   1.0000     -25.469656      -693.0646
   3   1.0000     -25.468515      -693.0335
   4   1.0000     -25.463405      -692.8945
   5   1.0000      -4.037967      -109.8787
   6   1.0000      -4.034039      -109.7718
   7   1.0000      -4.032729      -109.7361
   8   1.0000      -4.032252      -109.7231
   9   1.0000      -4.031584      -109.7050
  10   1.0000      -4.030896      -109.6863
  11   1.0000      -4.030423      -109.6734
  12   1.0000      -4.029825      -109.6571
  13   1.0000      -4.027795      -109.6019
  14   1.0000      -4.026681      -109.5716
  15   1.0000      -4.022983      -109.4709
  16   1.0000      -4.020663      -109.4078
  17   1.0000      -4.020086      -109.3921
  18   1.0000      -4.019956      -109.3886
  19   1.0000      -4.019691      -109.3814
  20   1.0000      -4.014846      -109.2495
  21   1.0000      -3.230617       -87.9096
  22   1.0000      -2.254663       -61.3525
  23   1.0000      -2.250591       -61.2417
  24   1.0000      -2.250096       -61.2282
  25   1.0000      -2.249509       -61.2123
  26   1.0000      -2.249096       -61.2010
  27   1.0000      -2.248382       -61.1816
  28   1.0000      -2.248331       -61.1802
  29   1.0000      -2.247147       -61.1480
  30   1.0000      -2.246292       -61.1247
  31   1.0000      -2.246103       -61.1196
  32   1.0000      -2.245420       -61.1010
  33   1.0000      -2.245319       -61.0982
  34   1.0000      -2.244480       -61.0754
  35   1.0000      -2.244402       -61.0733
  36   1.0000      -2.244190       -61.0675
  37   1.0000      -2.243599       -61.0514
  38   1.0000      -2.242964       -61.0342
  39   1.0000      -2.242720       -61.0275
  40   1.0000      -2.242601       -61.0243
  41   1.0000      -2.242311       -61.0164
  42   1.0000      -2.241862       -61.0042
  43   1.0000      -2.241733       -61.0007
  44   1.0000      -2.241303       -60.9890
  45   1.0000      -2.240915       -60.9784
  46   1.0000      -2.240737       -60.9736
  47   1.0000      -2.240490       -60.9668
  48   1.0000      -2.239761       -60.9470
  49   1.0000      -2.239164       -60.9307
  50   1.0000      -2.238738       -60.9192
  51   1.0000      -2.237921       -60.8969
  52   1.0000      -2.237790       -60.8934
  53   1.0000      -2.236647       -60.8623
  54   1.0000      -2.236599       -60.8610
  55   1.0000      -2.235686       -60.8361
  56   1.0000      -2.235304       -60.8257
  57   1.0000      -2.234929       -60.8155
  58   1.0000      -2.234538       -60.8049
  59   1.0000      -2.234292       -60.7982
  60   1.0000      -2.233921       -60.7881
  61   1.0000      -2.233339       -60.7723
  62   1.0000      -2.231867       -60.7322
  63   1.0000      -2.230775       -60.7025
  64   1.0000      -2.230548       -60.6963
  65   1.0000      -2.229343       -60.6635
  66   1.0000      -2.228703       -60.6461
  67   1.0000      -2.228470       -60.6397
  68   1.0000      -2.228317       -60.6356
  69   1.0000      -2.223161       -60.4953
  70   1.0000      -2.052259       -55.8448
  71   1.0000      -2.049548       -55.7710
  72   1.0000      -2.040229       -55.5175
  73   1.0000      -0.429156       -11.6779
  74   1.0000      -0.393144       -10.6980
  75   1.0000      -0.392595       -10.6831
  76   1.0000      -0.385152       -10.4805
  77   1.0000      -0.378185       -10.2909
  78   1.0000      -0.376854       -10.2547
  79   1.0000      -0.365613        -9.9488
  80   1.0000      -0.361605        -9.8398
  81   1.0000      -0.361363        -9.8332
  82   1.0000      -0.360162        -9.8005
  83   1.0000      -0.359693        -9.7877
  84   1.0000      -0.358978        -9.7683
  85   1.0000      -0.352439        -9.5904
  86   1.0000      -0.352147        -9.5824
  87   1.0000      -0.350368        -9.5340
  88   1.0000      -0.348615        -9.4863
  89   1.0000      -0.346308        -9.4235
  90   1.0000      -0.345648        -9.4056
  91   1.0000      -0.343804        -9.3554
  92   1.0000      -0.342911        -9.3311
  93   1.0000      -0.342548        -9.3212
  94   1.0000      -0.341666        -9.2972
  95   1.0000      -0.340580        -9.2676
  96   1.0000      -0.338578        -9.2132
  97   1.0000      -0.337644        -9.1878
  98   1.0000      -0.336524        -9.1573
  99   1.0000      -0.332208        -9.0398
 100   1.0000      -0.326541        -8.8856
 101   1.0000      -0.326156        -8.8752
 102   1.0000      -0.324586        -8.8324
 103   1.0000      -0.322097        -8.7647
 104   1.0000      -0.321144        -8.7388
 105   1.0000      -0.320102        -8.7104
 106   1.0000      -0.319508        -8.6943
 107   1.0000      -0.313958        -8.5432
 108   1.0000      -0.313121        -8.5204
 109   1.0000      -0.312531        -8.5044
 110   1.0000      -0.308108        -8.3840
 111   1.0000      -0.305497        -8.3130
 112   1.0000      -0.305010        -8.2998
 113   1.0000      -0.304554        -8.2873
 114   1.0000      -0.302425        -8.2294
 115   1.0000      -0.296552        -8.0696
 116   1.0000      -0.292626        -7.9628
 117   1.0000      -0.291857        -7.9418
 118   1.0000      -0.285612        -7.7719
 119   1.0000      -0.284907        -7.7527
 120   1.0000      -0.282601        -7.6900
 121   1.0000      -0.281901        -7.6709
 122   1.0000      -0.279729        -7.6118
 123   1.0000      -0.279653        -7.6097
 124   1.0000      -0.278207        -7.5704
 125   1.0000      -0.277217        -7.5434
 126   1.0000      -0.275650        -7.5008
 127   1.0000      -0.274284        -7.4636
 128   1.0000      -0.274111        -7.4589
 129   1.0000      -0.272528        -7.4159
 130   1.0000      -0.272011        -7.4018
 131   1.0000      -0.269717        -7.3394
 132   1.0000      -0.269598        -7.3361
 133   1.0000      -0.267579        -7.2812
 134   1.0000      -0.267220        -7.2714
 135   1.0000      -0.265191        -7.2162
 136   1.0000      -0.262943        -7.1550
 137   1.0000      -0.261354        -7.1118
 138   1.0000      -0.260583        -7.0908
 139   1.0000      -0.259933        -7.0731
 140   1.0000      -0.259254        -7.0547
 141   1.0000      -0.258286        -7.0283
 142   1.0000      -0.257557        -7.0085
 143   1.0000      -0.256144        -6.9700
 144   1.0000      -0.253776        -6.9056
 145   1.0000      -0.252108        -6.8602
 146   1.0000      -0.251573        -6.8456
 147   1.0000      -0.248706        -6.7676
 148   1.0000      -0.248105        -6.7513
 149   1.0000      -0.247372        -6.7313
 150   1.0000      -0.247142        -6.7251
 151   1.0000      -0.241050        -6.5593
 152   1.0000      -0.240447        -6.5429
 153   1.0000      -0.239869        -6.5272
 154   1.0000      -0.238992        -6.5033
 155   1.0000      -0.238346        -6.4857
 156   1.0000      -0.228655        -6.2220
 157   1.0000      -0.223837        -6.0909
 158   1.0000      -0.222934        -6.0663
 159   1.0000      -0.210894        -5.7387
 160   1.0000      -0.210773        -5.7354
 161   1.0000      -0.208473        -5.6728
 162   1.0000      -0.176069        -4.7911
 163   1.0000      -0.174410        -4.7459
 164   0.0000      -0.157078        -4.2743
 165   0.0000      -0.156228        -4.2512
 166   0.0000      -0.149116        -4.0576
 167   0.0000      -0.141066        -3.8386
 168   0.0000      -0.138871        -3.7789

MULLIKEN ATOMIC CHARGES AND SPIN POPULATIONS
--------------------------------------------
   0 Au:    0.433688   -0.045505
   1 Au:    0.420293    0.008468
   2 Au:    0.445208   -0.087327
   3 Au:    0.425386   -0.020649
   4 Au:   -0.257329   -0.000698
   5 Au:   -0.264426   -0.104159
   6 Au:    0.419517    0.017200
   7 Au:    0.227125   -0.098536
   8 Au:    0.211995   -0.024520
   9 Au:    0.028518    0.001352
  10 Au:    0.247343   -0.092642
  11 Au:   -0.260417   -0.062262
  12 Au:    0.270106   -0.008099
  13 Au:   -0.276485   -0.139748
  14 Au:    0.270709   -0.034428
  15 Au:   -0.256769    0.021171
  16 Fe:   -2.084463    2.670381
Sum of atomic charges         :    0.0000000

LOEWDIN ATOMIC CHARGES AND SPIN POPULATIONS
-------------------------------------------
   0 Au:    0.122858   -0.040668
   1 Au:    0.117898   -0.014430
   2 Au:    0.126137   -0.073188
   3 Au:    0.120801   -0.026259
   4 Au:   -0.020844   -0.027346
   5 Au:   -0.023459   -0.058246
   6 Au:    0.117947   -0.014070
   7 Au:    0.011734   -0.059456
   8 Au:    0.004701   -0.035456
   9 Au:   -0.027944   -0.017970
  10 Au:    0.016887   -0.059636
  11 Au:   -0.021321   -0.043682
  12 Au:    0.017357   -0.045043
  13 Au:   -0.023905   -0.074410
  14 Au:    0.019223   -0.051599
  15 Au:   -0.021323   -0.026731
  16 Fe:   -0.536746    2.668188

  Mayer bond orders larger than 0.100000
B(  0-Au,  1-Au) :   0.1516 B(  0-Au,  2-Au) :   0.1694 B(  0-Au, 11-Au) :   0.2019
B(  0-Au, 15-Au) :   0.2498 B(  0-Au, 16-Fe) :   0.4647 B(  1-Au,  6-Au) :   0.1312
B(  1-Au, 11-Au) :   0.2639 B(  1-Au, 13-Au) :   0.2405 B(  1-Au, 16-Fe) :   0.4406
B(  2-Au,  3-Au) :   0.1634 B(  2-Au,  4-Au) :   0.2118 B(  2-Au, 15-Au) :   0.2247
B(  2-Au, 16-Fe) :   0.4450 B(  3-Au,  4-Au) :   0.2665 B(  3-Au,  5-Au) :   0.2089
B(  3-Au,  6-Au) :   0.1436 B(  3-Au, 16-Fe) :   0.4559 B(  4-Au,  5-Au) :   0.1760
B(  4-Au,  8-Au) :   0.3259 B(  4-Au, 10-Au) :   0.3252 B(  4-Au, 15-Au) :   0.1226
B(  4-Au, 16-Fe) :   0.4056 B(  5-Au,  6-Au) :   0.2547 B(  5-Au, 10-Au) :   0.2995
B(  5-Au, 12-Au) :   0.3253 B(  5-Au, 13-Au) :   0.2502 B(  5-Au, 16-Fe) :   0.4108
B(  6-Au, 13-Au) :   0.2523 B(  6-Au, 16-Fe) :   0.4412 B(  7-Au,  8-Au) :   0.2502
B(  7-Au,  9-Au) :   0.3110 B(  7-Au, 11-Au) :   0.2956 B(  7-Au, 14-Au) :   0.2053
B(  7-Au, 15-Au) :   0.3239 B(  8-Au,  9-Au) :   0.3084 B(  8-Au, 10-Au) :   0.2319
B(  8-Au, 15-Au) :   0.3355 B(  9-Au, 10-Au) :   0.3006 B(  9-Au, 12-Au) :   0.3047
B(  9-Au, 14-Au) :   0.2923 B( 10-Au, 12-Au) :   0.1987 B( 11-Au, 13-Au) :   0.2248
B( 11-Au, 14-Au) :   0.3285 B( 11-Au, 15-Au) :   0.1454 B( 11-Au, 16-Fe) :   0.4096
B( 12-Au, 13-Au) :   0.3423 B( 12-Au, 14-Au) :   0.2034 B( 13-Au, 14-Au) :   0.3361
B( 13-Au, 16-Fe) :   0.3996 B( 15-Au, 16-Fe) :   0.4088

FINAL SINGLE POINT ENERGY     -3436.730660736184

DIPOLE MOMENT
-------------
                                X             Y             Z
Electronic contribution:     11.12413      37.62091     -38.72054
Nuclear contribution   :    -11.33441     -38.31542      39.43295
                        -----------------------------------------
Total Dipole Moment    :     -0.21029      -0.69452       0.71242
                        -----------------------------------------
Magnitude (a.u.)       :      1.01691
Magnitude (Debye)      :      2.58479

Rotational constants in cm-1:     0.000965     0.000752     0.000746
Rotational constants in MHz :    28.920943    22.556033    22.374083

                             ****ORCA TERMINATED NORMALLY****
TOTAL RUN TIME: 0 days 9 hours 18 minutes 49 seconds 43 msec
