                         Program Version 5.0.3 -  RELEASE  -
|  1> !RI-B2PLYP def2-TZVP def2-TZVP/C
|  2> !RIJCOSX KDIIS
|  3> %pal nprocs 16 end
|  4>
|  5> %scf
|  6>   AutoTRAHIter 200
|  7>   maxiter 400
|  8> end
|  9>
| 10>
| 11>
| 12> *xyzfile 0 5 pbe.xyz
| 13>
| 14> $new_job
| 15>
| 16> !RI-B2PLYP def2-TZVP def2-TZVP/C
| 17> !RIJCOSX KDIIS
| 18>
| 19> %pal nprocs 16 end
| 20> %scf
| 21>   AutoTRAHIter 200
| 22>   maxiter 400
| 23> end
| 24>
| 25>
| 26> *xyzfile 0 3 pbe.xyz
| 27>
| 28>
| 29>
| 30>
| 31>
| 32>                          ****END OF INPUT****
 Total Charge           Charge          ....    0
 Multiplicity           Mult            ....    5
 Number of Electrons    NEL             ....  310
MP2 TOTAL ENERGY:    -3184.698183744 Eh
FINAL SINGLE POINT ENERGY     -3184.698183744134

CARTESIAN COORDINATES (ANGSTROEM)
---------------------------------
  Au     9.035218    8.857150    7.207205
  Au     7.408683   11.124875    7.419177
  Au     8.258792   10.017125    9.753834
  Au     5.661752    9.141089   10.619109
  Au    10.063971    7.867437    9.685446
  Au     8.404744    5.603400    9.618422
  Au     7.980085    7.850705   11.481868
  Au    10.016843    6.245795    7.437085
  Au     5.946672    6.142988   10.782602
  Au     7.637007    6.535665    6.149602
  Au     5.073540    9.679987    7.901873
  Au     6.653382    9.121149    5.653835
  Au     6.033720    5.202430    8.126405
  Au     4.926415    7.126929    6.440993
  Au     4.140659    7.344129    9.067523
  Mn     6.954711    7.757711    8.615944

 Multiplicity           Mult            ....    3
 Number of Electrons    NEL             ....  310
 Basis Dimension        Dim             ....  645

ORBITAL ENERGIES
----------------
                 SPIN UP ORBITALS
  NO   OCC          E(Eh)            E(eV)
   0   1.0000    -237.635016     -6466.3775
   1   1.0000     -28.136242      -765.6261
   2   1.0000     -24.054482      -654.5557
   3   1.0000     -24.054025      -654.5433
   4   1.0000     -24.053964      -654.5416
   5   1.0000      -4.413252      -120.0907
   6   1.0000      -4.411862      -120.0529
   7   1.0000      -4.411743      -120.0496
   8   1.0000      -4.407382      -119.9310
   9   1.0000      -4.406847      -119.9164
  10   1.0000      -4.405842      -119.8891
  11   1.0000      -4.405441      -119.8781
  12   1.0000      -4.404953      -119.8649
  13   1.0000      -4.404741      -119.8591
  14   1.0000      -4.402183      -119.7895
  15   1.0000      -4.402155      -119.7887
  16   1.0000      -4.401259      -119.7644
  17   1.0000      -4.401198      -119.7627
  18   1.0000      -4.392526      -119.5267
  19   1.0000      -4.392261      -119.5195
  20   1.0000      -3.614185       -98.3470
  21   1.0000      -2.532217       -68.9051
  22   1.0000      -2.532103       -68.9020
  23   1.0000      -2.531691       -68.8908
  24   1.0000      -2.530958       -68.8709
  25   1.0000      -2.530130       -68.8483
  26   1.0000      -2.529967       -68.8439
  27   1.0000      -2.529596       -68.8338
  28   1.0000      -2.528684       -68.8090
  29   1.0000      -2.528550       -68.8053
  30   1.0000      -2.527464       -68.7758
  31   1.0000      -2.527030       -68.7640
  32   1.0000      -2.525920       -68.7338
  33   1.0000      -2.525693       -68.7276
  34   1.0000      -2.525613       -68.7254
  35   1.0000      -2.524786       -68.7029
  36   1.0000      -2.524543       -68.6963
  37   1.0000      -2.523979       -68.6810
  38   1.0000      -2.523797       -68.6760
  39   1.0000      -2.523558       -68.6695
  40   1.0000      -2.523325       -68.6632
  41   1.0000      -2.522647       -68.6447
  42   1.0000      -2.522274       -68.6346
  43   1.0000      -2.521801       -68.6217
  44   1.0000      -2.521194       -68.6052
  45   1.0000      -2.520885       -68.5968
  46   1.0000      -2.520567       -68.5881
  47   1.0000      -2.520017       -68.5731
  48   1.0000      -2.519742       -68.5657
  49   1.0000      -2.519082       -68.5477
  50   1.0000      -2.518564       -68.5336
  51   1.0000      -2.518448       -68.5305
  52   1.0000      -2.518159       -68.5226
  53   1.0000      -2.518110       -68.5213
  54   1.0000      -2.517545       -68.5059
  55   1.0000      -2.517261       -68.4981
  56   1.0000      -2.517230       -68.4973
  57   1.0000      -2.517067       -68.4929
  58   1.0000      -2.516311       -68.4723
  59   1.0000      -2.516234       -68.4702
  60   1.0000      -2.509513       -68.2873
  61   1.0000      -2.509280       -68.2810
  62   1.0000      -2.508462       -68.2587
  63   1.0000      -2.508044       -68.2474
  64   1.0000      -2.507758       -68.2396
  65   1.0000      -2.507499       -68.2325
  66   1.0000      -2.416503       -65.7564
  67   1.0000      -2.416251       -65.7495
  68   1.0000      -2.415621       -65.7324
  69   1.0000      -0.523601       -14.2479
  70   1.0000      -0.522114       -14.2074
  71   1.0000      -0.521365       -14.1871
  72   1.0000      -0.518916       -14.1204
  73   1.0000      -0.517047       -14.0696
  74   1.0000      -0.513950       -13.9853
  75   1.0000      -0.475538       -12.9401
  76   1.0000      -0.473193       -12.8762
  77   1.0000      -0.469756       -12.7827
  78   1.0000      -0.468015       -12.7353
  79   1.0000      -0.466872       -12.7042
  80   1.0000      -0.464967       -12.6524
  81   1.0000      -0.463648       -12.6165
  82   1.0000      -0.463489       -12.6122
  83   1.0000      -0.462611       -12.5883
  84   1.0000      -0.461923       -12.5696
  85   1.0000      -0.460014       -12.5176
  86   1.0000      -0.459130       -12.4936
  87   1.0000      -0.458969       -12.4892
  88   1.0000      -0.456286       -12.4162
  89   1.0000      -0.456022       -12.4090
  90   1.0000      -0.454282       -12.3616
  91   1.0000      -0.452463       -12.3121
  92   1.0000      -0.452001       -12.2996
  93   1.0000      -0.449549       -12.2329
  94   1.0000      -0.444275       -12.0893
  95   1.0000      -0.444024       -12.0825
  96   1.0000      -0.441599       -12.0165
  97   1.0000      -0.435377       -11.8472
  98   1.0000      -0.434419       -11.8211
  99   1.0000      -0.431933       -11.7535
 100   1.0000      -0.431121       -11.7314
 101   1.0000      -0.430735       -11.7209
 102   1.0000      -0.426456       -11.6045
 103   1.0000      -0.424886       -11.5617
 104   1.0000      -0.423947       -11.5362
 105   1.0000      -0.421722       -11.4756
 106   1.0000      -0.419153       -11.4057
 107   1.0000      -0.414941       -11.2911
 108   1.0000      -0.411411       -11.1951
 109   1.0000      -0.407454       -11.0874
 110   1.0000      -0.404696       -11.0123
 111   1.0000      -0.400301       -10.8927
 112   1.0000      -0.397678       -10.8214
 113   1.0000      -0.395232       -10.7548
 114   1.0000      -0.392365       -10.6768
 115   1.0000      -0.385388       -10.4870
 116   1.0000      -0.383276       -10.4295
 117   1.0000      -0.380466       -10.3530
 118   1.0000      -0.378727       -10.3057
 119   1.0000      -0.377588       -10.2747
 120   1.0000      -0.377005       -10.2588
 121   1.0000      -0.376606       -10.2480
 122   1.0000      -0.375243       -10.2109
 123   1.0000      -0.373484       -10.1630
 124   1.0000      -0.372538       -10.1373
 125   1.0000      -0.371291       -10.1033
 126   1.0000      -0.371040       -10.0965
 127   1.0000      -0.370512       -10.0822
 128   1.0000      -0.368556       -10.0289
 129   1.0000      -0.366278        -9.9669
 130   1.0000      -0.363909        -9.9025
 131   1.0000      -0.363574        -9.8934
 132   1.0000      -0.360884        -9.8202
 133   1.0000      -0.360532        -9.8106
 134   1.0000      -0.359429        -9.7806
 135   1.0000      -0.357171        -9.7191
 136   1.0000      -0.356337        -9.6964
 137   1.0000      -0.353521        -9.6198
 138   1.0000      -0.352619        -9.5952
 139   1.0000      -0.349986        -9.5236
 140   1.0000      -0.349467        -9.5095
 141   1.0000      -0.348654        -9.4874
 142   1.0000      -0.344505        -9.3745
 143   1.0000      -0.343650        -9.3512
 144   1.0000      -0.339112        -9.2277
 145   1.0000      -0.338162        -9.2019
 146   1.0000      -0.336887        -9.1672
 147   1.0000      -0.331714        -9.0264
 148   1.0000      -0.326531        -8.8854
 149   1.0000      -0.324790        -8.8380
 150   1.0000      -0.320400        -8.7185
 151   1.0000      -0.318319        -8.6619
 152   1.0000      -0.309163        -8.4128
 153   1.0000      -0.245215        -6.6726
 154   1.0000      -0.234908        -6.3922
 155   1.0000      -0.221637        -6.0310
 156   0.0000      -0.145883        -3.9697
 157   0.0000      -0.128637        -3.5004
 158   0.0000      -0.089737        -2.4419
 159   0.0000      -0.063779        -1.7355
 160   0.0000      -0.059914        -1.6303

                 SPIN DOWN ORBITALS
  NO   OCC          E(Eh)            E(eV)
   0   1.0000    -237.633406     -6466.3337
   1   1.0000     -28.035274      -762.8786
   2   1.0000     -23.961838      -652.0348
   3   1.0000     -23.960962      -652.0109
   4   1.0000     -23.960888      -652.0089
   5   1.0000      -4.415730      -120.1581
   6   1.0000      -4.412595      -120.0728
   7   1.0000      -4.412507      -120.0704
   8   1.0000      -4.408016      -119.9482
   9   1.0000      -4.407476      -119.9335
  10   1.0000      -4.406032      -119.8942
  11   1.0000      -4.405895      -119.8905
  12   1.0000      -4.405767      -119.8870
  13   1.0000      -4.405508      -119.8800
  14   1.0000      -4.402991      -119.8115
  15   1.0000      -4.402980      -119.8112
  16   1.0000      -4.402564      -119.7999
  17   1.0000      -4.402508      -119.7983
  18   1.0000      -4.395777      -119.6152
  19   1.0000      -4.395419      -119.6054
  20   1.0000      -3.330187       -90.6190
  21   1.0000      -2.534642       -68.9711
  22   1.0000      -2.532525       -68.9135
  23   1.0000      -2.532224       -68.9053
  24   1.0000      -2.532115       -68.9024
  25   1.0000      -2.531316       -68.8806
  26   1.0000      -2.530057       -68.8463
  27   1.0000      -2.529957       -68.8436
  28   1.0000      -2.528838       -68.8132
  29   1.0000      -2.528712       -68.8097
  30   1.0000      -2.527952       -68.7891
  31   1.0000      -2.527545       -68.7780
  32   1.0000      -2.526282       -68.7436
  33   1.0000      -2.525436       -68.7206
  34   1.0000      -2.525327       -68.7176
  35   1.0000      -2.525001       -68.7088
  36   1.0000      -2.524804       -68.7034
  37   1.0000      -2.524455       -68.6939
  38   1.0000      -2.524210       -68.6873
  39   1.0000      -2.523950       -68.6802
  40   1.0000      -2.523532       -68.6688
  41   1.0000      -2.522777       -68.6483
  42   1.0000      -2.522452       -68.6394
  43   1.0000      -2.522293       -68.6351
  44   1.0000      -2.521807       -68.6219
  45   1.0000      -2.521535       -68.6145
  46   1.0000      -2.521252       -68.6068
  47   1.0000      -2.520480       -68.5858
  48   1.0000      -2.520279       -68.5803
  49   1.0000      -2.520022       -68.5733
  50   1.0000      -2.519890       -68.5697
  51   1.0000      -2.519483       -68.5586
  52   1.0000      -2.519300       -68.5536
  53   1.0000      -2.519142       -68.5493
  54   1.0000      -2.519063       -68.5472
  55   1.0000      -2.518814       -68.5404
  56   1.0000      -2.517799       -68.5128
  57   1.0000      -2.517723       -68.5107
  58   1.0000      -2.517294       -68.4990
  59   1.0000      -2.517148       -68.4951
  60   1.0000      -2.512736       -68.3750
  61   1.0000      -2.512375       -68.3652
  62   1.0000      -2.512198       -68.3604
  63   1.0000      -2.511877       -68.3516
  64   1.0000      -2.510612       -68.3172
  65   1.0000      -2.510317       -68.3092
  66   1.0000      -2.090652       -56.8895
  67   1.0000      -2.090234       -56.8782
  68   1.0000      -2.089618       -56.8614
  69   1.0000      -0.519242       -14.1293
  70   1.0000      -0.480662       -13.0795
  71   1.0000      -0.479302       -13.0425
  72   1.0000      -0.475435       -12.9372
  73   1.0000      -0.474554       -12.9133
  74   1.0000      -0.473662       -12.8890
  75   1.0000      -0.472193       -12.8490
  76   1.0000      -0.469827       -12.7846
  77   1.0000      -0.468338       -12.7441
  78   1.0000      -0.468293       -12.7429
  79   1.0000      -0.466703       -12.6996
  80   1.0000      -0.466002       -12.6805
  81   1.0000      -0.465391       -12.6639
  82   1.0000      -0.465062       -12.6550
  83   1.0000      -0.463119       -12.6021
  84   1.0000      -0.462367       -12.5816
  85   1.0000      -0.462204       -12.5772
  86   1.0000      -0.460978       -12.5439
  87   1.0000      -0.460591       -12.5333
  88   1.0000      -0.458916       -12.4877
  89   1.0000      -0.454386       -12.3645
  90   1.0000      -0.451646       -12.2899
  91   1.0000      -0.451404       -12.2833
  92   1.0000      -0.449849       -12.2410
  93   1.0000      -0.440086       -11.9754
  94   1.0000      -0.436003       -11.8642
  95   1.0000      -0.435530       -11.8514
  96   1.0000      -0.435266       -11.8442
  97   1.0000      -0.431431       -11.7398
  98   1.0000      -0.430186       -11.7060
  99   1.0000      -0.428796       -11.6681
 100   1.0000      -0.427310       -11.6277
 101   1.0000      -0.422575       -11.4988
 102   1.0000      -0.417336       -11.3563
 103   1.0000      -0.417246       -11.3538
 104   1.0000      -0.413165       -11.2428
 105   1.0000      -0.408870       -11.1259
 106   1.0000      -0.403594       -10.9824
 107   1.0000      -0.402711       -10.9583
 108   1.0000      -0.400056       -10.8861
 109   1.0000      -0.399776       -10.8785
 110   1.0000      -0.396237       -10.7822
 111   1.0000      -0.389914       -10.6101
 112   1.0000      -0.388327       -10.5669
 113   1.0000      -0.383992       -10.4489
 114   1.0000      -0.382335       -10.4039
 115   1.0000      -0.381177       -10.3724
 116   1.0000      -0.380477       -10.3533
 117   1.0000      -0.379564       -10.3285
 118   1.0000      -0.378474       -10.2988
 119   1.0000      -0.377888       -10.2829
 120   1.0000      -0.375828       -10.2268
 121   1.0000      -0.374957       -10.2031
 122   1.0000      -0.372538       -10.1373
 123   1.0000      -0.371490       -10.1088
 124   1.0000      -0.368760       -10.0345
 125   1.0000      -0.368307       -10.0221
 126   1.0000      -0.367595       -10.0028
 127   1.0000      -0.365681        -9.9507
 128   1.0000      -0.363016        -9.8782
 129   1.0000      -0.361925        -9.8485
 130   1.0000      -0.361212        -9.8291
 131   1.0000      -0.360362        -9.8060
 132   1.0000      -0.356469        -9.7000
 133   1.0000      -0.355749        -9.6804
 134   1.0000      -0.353458        -9.6181
 135   1.0000      -0.352796        -9.6001
 136   1.0000      -0.351446        -9.5633
 137   1.0000      -0.349081        -9.4990
 138   1.0000      -0.346631        -9.4323
 139   1.0000      -0.343682        -9.3521
 140   1.0000      -0.342421        -9.3178
 141   1.0000      -0.340242        -9.2585
 142   1.0000      -0.336785        -9.1644
 143   1.0000      -0.333508        -9.0752
 144   1.0000      -0.330411        -8.9909
 145   1.0000      -0.328703        -8.9445
 146   1.0000      -0.326275        -8.8784
 147   1.0000      -0.323078        -8.7914
 148   1.0000      -0.259713        -7.0672
 149   1.0000      -0.249347        -6.7851
 150   1.0000      -0.242291        -6.5931
 151   1.0000      -0.237382        -6.4595
 152   1.0000      -0.225894        -6.1469
 153   1.0000      -0.166263        -4.5243
 154   0.0000      -0.072063        -1.9609
 155   0.0000      -0.070953        -1.9307
 156   0.0000      -0.069304        -1.8859
 157   0.0000      -0.062213        -1.6929
 158   0.0000      -0.061300        -1.6681

MULLIKEN ATOMIC CHARGES AND SPIN POPULATIONS
--------------------------------------------
   0 Au:   -0.119150   -0.078331
   1 Au:    0.241028   -0.361634
   2 Au:    0.077859   -0.106953
   3 Au:    0.245929   -0.111131
   4 Au:    0.168087   -0.112688
   5 Au:    0.119873   -0.230360
   6 Au:    0.175402   -0.055735
   7 Au:    0.240168   -0.369490
   8 Au:    0.253329   -0.167168
   9 Au:    0.083706   -0.120462
  10 Au:    0.123918   -0.231604
  11 Au:    0.164297   -0.108494
  12 Au:    0.241062   -0.098168
  13 Au:    0.180844   -0.058077
  14 Au:    0.254041   -0.162380
  15 Mn:   -2.450395    4.372675
Sum of atomic charges         :   -0.0000000

LOEWDIN ATOMIC CHARGES AND SPIN POPULATIONS
-------------------------------------------
   0 Au:   -0.038948   -0.127235
   1 Au:    0.037187   -0.318831
   2 Au:   -0.008317   -0.135983
   3 Au:    0.055234   -0.130695
   4 Au:    0.023610   -0.146528
   5 Au:    0.022860   -0.179361
   6 Au:    0.017003   -0.115174
   7 Au:    0.037988   -0.326472
   8 Au:    0.022119   -0.151014
   9 Au:   -0.006363   -0.141605
  10 Au:    0.023580   -0.179526
  11 Au:    0.024016   -0.146714
  12 Au:    0.053043   -0.125446
  13 Au:    0.017235   -0.114678
  14 Au:    0.022807   -0.148553
  15 Mn:   -0.303053    4.487814

  Mayer bond orders larger than 0.100000
B(  0-Au,  1-Au) :   0.2371 B(  0-Au,  2-Au) :   0.1663 B(  0-Au,  4-Au) :   0.2022
B(  0-Au,  7-Au) :   0.2358 B(  0-Au,  9-Au) :   0.1628 B(  0-Au, 11-Au) :   0.2016
B(  0-Au, 15-Mn) :   0.4710 B(  1-Au,  2-Au) :   0.2918 B(  1-Au, 10-Au) :   0.2210
B(  1-Au, 11-Au) :   0.2269 B(  2-Au,  3-Au) :   0.1040 B(  2-Au,  4-Au) :   0.2625
B(  2-Au,  6-Au) :   0.2221 B(  2-Au, 15-Mn) :   0.3628 B(  3-Au,  6-Au) :   0.2176
B(  3-Au,  8-Au) :   0.1065 B(  3-Au, 10-Au) :   0.1897 B(  3-Au, 14-Au) :   0.1629
B(  3-Au, 15-Mn) :   0.4105 B(  4-Au,  5-Au) :   0.1748 B(  4-Au,  6-Au) :   0.2349
B(  4-Au,  7-Au) :   0.2294 B(  4-Au, 15-Mn) :   0.2212 B(  5-Au,  6-Au) :   0.1054
B(  5-Au,  7-Au) :   0.2220 B(  5-Au,  8-Au) :   0.2042 B(  5-Au, 12-Au) :   0.1865
B(  5-Au, 15-Mn) :   0.4141 B(  6-Au,  8-Au) :   0.2349 B(  6-Au, 15-Mn) :   0.2833
B(  7-Au,  9-Au) :   0.2902 B(  8-Au, 12-Au) :   0.1626 B(  8-Au, 14-Au) :   0.2210
B(  8-Au, 15-Mn) :   0.3212 B(  9-Au, 11-Au) :   0.2589 B(  9-Au, 12-Au) :   0.1042
B(  9-Au, 13-Au) :   0.2226 B(  9-Au, 15-Mn) :   0.3642 B( 10-Au, 11-Au) :   0.1766
B( 10-Au, 13-Au) :   0.1048 B( 10-Au, 14-Au) :   0.2037 B( 10-Au, 15-Mn) :   0.4117
B( 11-Au, 13-Au) :   0.2347 B( 11-Au, 15-Mn) :   0.2263 B( 12-Au, 13-Au) :   0.2206
B( 12-Au, 14-Au) :   0.1100 B( 12-Au, 15-Mn) :   0.4109 B( 13-Au, 14-Au) :   0.2312
B( 13-Au, 15-Mn) :   0.2825 B( 14-Au, 15-Mn) :   0.3244

MP2 TOTAL ENERGY:    -3184.642341456 Eh
FINAL SINGLE POINT ENERGY     -3184.642341456431

DIPOLE MOMENT
-------------
                                X             Y             Z
Electronic contribution:      6.93108       3.54962      -4.49511
Nuclear contribution   :     -7.11677      -3.64312       4.61532
                        -----------------------------------------
Total Dipole Moment    :     -0.18569      -0.09350       0.12021
                        -----------------------------------------
Magnitude (a.u.)       :      0.24015
Magnitude (Debye)      :      0.61042

Rotational constants in cm-1:     0.000993     0.000946     0.000896
Rotational constants in MHz :    29.755566    28.351638    26.855414

                             ****ORCA TERMINATED NORMALLY****
TOTAL RUN TIME: 0 days 0 hours 22 minutes 8 seconds 933 msec
