                         Program Version 5.0.3 -  RELEASE  -
|  1> !PBE def2-TZVP SLOWCONV
|  2> !KDIIS
|  3>
|  4>
|  5> %pal nprocs 16 end
|  6>
|  7> %scf
|  8>   AutoTRAHIter 200
|  9>   maxiter 400
| 10> end
| 11>
| 12>
| 13> *xyzfile 0 5 pbe.xyz
| 14>
| 15> $new_job
| 16>
| 17> !PBE def2-TZVP SLOWCONV
| 18> !KDIIS
| 19>
| 20> %scf
| 21>   AutoTRAHIter 200
| 22>   maxiter 400
| 23> end
| 24>
| 25>
| 26> %pal nprocs 16 end
| 27>
| 28> *xyzfile 0 3 pbe.xyz
| 29>
| 30>
| 31>
| 32>
| 33>
| 34>                          ****END OF INPUT****
 Total Charge           Charge          ....    0
 Multiplicity           Mult            ....    5
 Number of Electrons    NEL             ....  310
FINAL SINGLE POINT ENERGY     -3188.224923816574

CARTESIAN COORDINATES (ANGSTROEM)
---------------------------------
  Au     9.035218    8.857150    7.207205
  Au     7.408683   11.124875    7.419177
  Au     8.258792   10.017125    9.753834
  Au     5.661752    9.141089   10.619109
  Au    10.063971    7.867437    9.685446
  Au     8.404744    5.603400    9.618422
  Au     7.980085    7.850705   11.481868
  Au    10.016843    6.245795    7.437085
  Au     5.946672    6.142988   10.782602
  Au     7.637007    6.535665    6.149602
  Au     5.073540    9.679987    7.901873
  Au     6.653382    9.121149    5.653835
  Au     6.033720    5.202430    8.126405
  Au     4.926415    7.126929    6.440993
  Au     4.140659    7.344129    9.067523
  Mn     6.954711    7.757711    8.615944

 Multiplicity           Mult            ....    3
 Number of Electrons    NEL             ....  310
 Basis Dimension        Dim             ....  645

ORBITAL ENERGIES
----------------
                 SPIN UP ORBITALS
  NO   OCC          E(Eh)            E(eV)
   0   1.0000    -234.210618     -6373.1949
   1   1.0000     -26.903747      -732.0882
   2   1.0000     -23.053352      -627.3136
   3   1.0000     -23.053063      -627.3057
   4   1.0000     -23.050991      -627.2494
   5   1.0000      -4.041985      -109.9880
   6   1.0000      -4.036784      -109.8465
   7   1.0000      -4.036666      -109.8433
   8   1.0000      -4.036113      -109.8282
   9   1.0000      -4.035837      -109.8207
  10   1.0000      -4.033299      -109.7516
  11   1.0000      -4.033198      -109.7489
  12   1.0000      -4.033103      -109.7463
  13   1.0000      -4.033049      -109.7449
  14   1.0000      -4.032127      -109.7197
  15   1.0000      -4.032086      -109.7186
  16   1.0000      -4.029754      -109.6552
  17   1.0000      -4.029548      -109.6496
  18   1.0000      -4.024352      -109.5082
  19   1.0000      -4.024174      -109.5033
  20   1.0000      -3.111489       -84.6679
  21   1.0000      -2.256142       -61.3928
  22   1.0000      -2.254656       -61.3523
  23   1.0000      -2.253702       -61.3263
  24   1.0000      -2.252591       -61.2961
  25   1.0000      -2.252488       -61.2933
  26   1.0000      -2.251785       -61.2742
  27   1.0000      -2.251593       -61.2690
  28   1.0000      -2.249706       -61.2176
  29   1.0000      -2.249593       -61.2145
  30   1.0000      -2.249481       -61.2115
  31   1.0000      -2.248906       -61.1958
  32   1.0000      -2.248732       -61.1911
  33   1.0000      -2.248657       -61.1891
  34   1.0000      -2.248446       -61.1833
  35   1.0000      -2.248164       -61.1756
  36   1.0000      -2.248085       -61.1735
  37   1.0000      -2.247864       -61.1675
  38   1.0000      -2.247522       -61.1582
  39   1.0000      -2.247281       -61.1516
  40   1.0000      -2.247088       -61.1464
  41   1.0000      -2.246465       -61.1294
  42   1.0000      -2.246243       -61.1234
  43   1.0000      -2.245671       -61.1078
  44   1.0000      -2.245496       -61.1031
  45   1.0000      -2.245202       -61.0951
  46   1.0000      -2.245123       -61.0929
  47   1.0000      -2.244592       -61.0785
  48   1.0000      -2.244215       -61.0682
  49   1.0000      -2.244028       -61.0631
  50   1.0000      -2.243631       -61.0523
  51   1.0000      -2.243529       -61.0495
  52   1.0000      -2.243391       -61.0458
  53   1.0000      -2.243050       -61.0365
  54   1.0000      -2.242653       -61.0257
  55   1.0000      -2.242547       -61.0228
  56   1.0000      -2.242110       -61.0109
  57   1.0000      -2.241949       -61.0065
  58   1.0000      -2.240529       -60.9679
  59   1.0000      -2.240312       -60.9620
  60   1.0000      -2.237793       -60.8934
  61   1.0000      -2.237661       -60.8899
  62   1.0000      -2.236355       -60.8543
  63   1.0000      -2.236128       -60.8481
  64   1.0000      -2.235277       -60.8250
  65   1.0000      -2.235058       -60.8190
  66   1.0000      -2.016000       -54.8581
  67   1.0000      -2.014720       -54.8233
  68   1.0000      -2.011330       -54.7311
  69   1.0000      -0.439768       -11.9667
  70   1.0000      -0.396352       -10.7853
  71   1.0000      -0.395062       -10.7502
  72   1.0000      -0.387415       -10.5421
  73   1.0000      -0.380380       -10.3507
  74   1.0000      -0.380021       -10.3409
  75   1.0000      -0.375653       -10.2220
  76   1.0000      -0.374363       -10.1869
  77   1.0000      -0.371004       -10.0955
  78   1.0000      -0.368628       -10.0309
  79   1.0000      -0.363607        -9.8942
  80   1.0000      -0.362874        -9.8743
  81   1.0000      -0.358551        -9.7567
  82   1.0000      -0.358428        -9.7533
  83   1.0000      -0.358186        -9.7467
  84   1.0000      -0.357834        -9.7372
  85   1.0000      -0.355575        -9.6757
  86   1.0000      -0.354166        -9.6374
  87   1.0000      -0.353852        -9.6288
  88   1.0000      -0.351651        -9.5689
  89   1.0000      -0.350059        -9.5256
  90   1.0000      -0.346194        -9.4204
  91   1.0000      -0.345879        -9.4118
  92   1.0000      -0.344227        -9.3669
  93   1.0000      -0.337147        -9.1742
  94   1.0000      -0.335473        -9.1287
  95   1.0000      -0.334726        -9.1083
  96   1.0000      -0.331792        -9.0285
  97   1.0000      -0.330831        -9.0024
  98   1.0000      -0.328359        -8.9351
  99   1.0000      -0.327693        -8.9170
 100   1.0000      -0.325494        -8.8571
 101   1.0000      -0.320062        -8.7093
 102   1.0000      -0.317711        -8.6454
 103   1.0000      -0.316065        -8.6006
 104   1.0000      -0.314803        -8.5662
 105   1.0000      -0.310935        -8.4610
 106   1.0000      -0.309283        -8.4160
 107   1.0000      -0.307412        -8.3651
 108   1.0000      -0.302161        -8.2222
 109   1.0000      -0.299255        -8.1431
 110   1.0000      -0.297825        -8.1042
 111   1.0000      -0.294215        -8.0060
 112   1.0000      -0.292105        -7.9486
 113   1.0000      -0.290369        -7.9013
 114   1.0000      -0.288819        -7.8592
 115   1.0000      -0.285417        -7.7666
 116   1.0000      -0.284276        -7.7356
 117   1.0000      -0.282858        -7.6970
 118   1.0000      -0.281868        -7.6700
 119   1.0000      -0.279783        -7.6133
 120   1.0000      -0.278746        -7.5851
 121   1.0000      -0.278279        -7.5724
 122   1.0000      -0.274957        -7.4820
 123   1.0000      -0.273820        -7.4510
 124   1.0000      -0.273115        -7.4318
 125   1.0000      -0.272744        -7.4217
 126   1.0000      -0.269528        -7.3342
 127   1.0000      -0.268810        -7.3147
 128   1.0000      -0.266848        -7.2613
 129   1.0000      -0.265471        -7.2238
 130   1.0000      -0.265279        -7.2186
 131   1.0000      -0.264203        -7.1893
 132   1.0000      -0.263568        -7.1720
 133   1.0000      -0.261058        -7.1038
 134   1.0000      -0.260284        -7.0827
 135   1.0000      -0.260043        -7.0761
 136   1.0000      -0.258530        -7.0350
 137   1.0000      -0.258276        -7.0280
 138   1.0000      -0.257091        -6.9958
 139   1.0000      -0.255720        -6.9585
 140   1.0000      -0.253943        -6.9101
 141   1.0000      -0.253840        -6.9073
 142   1.0000      -0.252111        -6.8603
 143   1.0000      -0.250353        -6.8124
 144   1.0000      -0.250229        -6.8091
 145   1.0000      -0.249624        -6.7926
 146   1.0000      -0.248865        -6.7720
 147   1.0000      -0.247735        -6.7412
 148   1.0000      -0.246646        -6.7116
 149   1.0000      -0.245270        -6.6741
 150   1.0000      -0.243326        -6.6212
 151   1.0000      -0.240300        -6.5389
 152   1.0000      -0.236112        -6.4249
 153   1.0000      -0.219493        -5.9727
 154   1.0000      -0.213328        -5.8049
 155   1.0000      -0.204861        -5.5745
 156   0.0000      -0.201996        -5.4966
 157   0.0000      -0.189951        -5.1688
 158   0.0000      -0.151984        -4.1357
 159   0.0000      -0.132099        -3.5946
 160   0.0000      -0.130491        -3.5508

                 SPIN DOWN ORBITALS
  NO   OCC          E(Eh)            E(eV)
   0   1.0000    -234.210071     -6373.1800
   1   1.0000     -26.839043      -730.3275
   2   1.0000     -23.005164      -626.0023
   3   1.0000     -23.002814      -625.9384
   4   1.0000     -23.002146      -625.9202
   5   1.0000      -4.043002      -110.0157
   6   1.0000      -4.037183      -109.8573
   7   1.0000      -4.037081      -109.8546
   8   1.0000      -4.036234      -109.8315
   9   1.0000      -4.035969      -109.8243
  10   1.0000      -4.033697      -109.7625
  11   1.0000      -4.033544      -109.7583
  12   1.0000      -4.033131      -109.7471
  13   1.0000      -4.032986      -109.7431
  14   1.0000      -4.032645      -109.7339
  15   1.0000      -4.032601      -109.7326
  16   1.0000      -4.030632      -109.6791
  17   1.0000      -4.030428      -109.6735
  18   1.0000      -4.026579      -109.5688
  19   1.0000      -4.026358      -109.5628
  20   1.0000      -2.952758       -80.3486
  21   1.0000      -2.257807       -61.4381
  22   1.0000      -2.255028       -61.3624
  23   1.0000      -2.254865       -61.3580
  24   1.0000      -2.253045       -61.3085
  25   1.0000      -2.252942       -61.3057
  26   1.0000      -2.252062       -61.2817
  27   1.0000      -2.251884       -61.2769
  28   1.0000      -2.250220       -61.2316
  29   1.0000      -2.249980       -61.2251
  30   1.0000      -2.249853       -61.2216
  31   1.0000      -2.249406       -61.2094
  32   1.0000      -2.249027       -61.1991
  33   1.0000      -2.248858       -61.1945
  34   1.0000      -2.248507       -61.1850
  35   1.0000      -2.248405       -61.1822
  36   1.0000      -2.248347       -61.1806
  37   1.0000      -2.248079       -61.1733
  38   1.0000      -2.247690       -61.1628
  39   1.0000      -2.247446       -61.1561
  40   1.0000      -2.247373       -61.1541
  41   1.0000      -2.246702       -61.1359
  42   1.0000      -2.246410       -61.1279
  43   1.0000      -2.246172       -61.1215
  44   1.0000      -2.245816       -61.1118
  45   1.0000      -2.245550       -61.1045
  46   1.0000      -2.245488       -61.1028
  47   1.0000      -2.245164       -61.0940
  48   1.0000      -2.244588       -61.0783
  49   1.0000      -2.244334       -61.0714
  50   1.0000      -2.244241       -61.0689
  51   1.0000      -2.244161       -61.0667
  52   1.0000      -2.243677       -61.0536
  53   1.0000      -2.243424       -61.0467
  54   1.0000      -2.243384       -61.0456
  55   1.0000      -2.243237       -61.0416
  56   1.0000      -2.242644       -61.0255
  57   1.0000      -2.242571       -61.0235
  58   1.0000      -2.241476       -60.9937
  59   1.0000      -2.241280       -60.9883
  60   1.0000      -2.239797       -60.9480
  61   1.0000      -2.239633       -60.9435
  62   1.0000      -2.238893       -60.9234
  63   1.0000      -2.238650       -60.9168
  64   1.0000      -2.237677       -60.8903
  65   1.0000      -2.237437       -60.8838
  66   1.0000      -1.860721       -50.6328
  67   1.0000      -1.857661       -50.5495
  68   1.0000      -1.856280       -50.5119
  69   1.0000      -0.436046       -11.8654
  70   1.0000      -0.396975       -10.8022
  71   1.0000      -0.396354       -10.7853
  72   1.0000      -0.388881       -10.5820
  73   1.0000      -0.377298       -10.2668
  74   1.0000      -0.374828       -10.1996
  75   1.0000      -0.372703       -10.1418
  76   1.0000      -0.370881       -10.0922
  77   1.0000      -0.370745       -10.0885
  78   1.0000      -0.366444        -9.9715
  79   1.0000      -0.364151        -9.9090
  80   1.0000      -0.363012        -9.8781
  81   1.0000      -0.360348        -9.8056
  82   1.0000      -0.359447        -9.7811
  83   1.0000      -0.359000        -9.7689
  84   1.0000      -0.358427        -9.7533
  85   1.0000      -0.356769        -9.7082
  86   1.0000      -0.355528        -9.6744
  87   1.0000      -0.354267        -9.6401
  88   1.0000      -0.352885        -9.6025
  89   1.0000      -0.349673        -9.5151
  90   1.0000      -0.346835        -9.4378
  91   1.0000      -0.346387        -9.4257
  92   1.0000      -0.345275        -9.3954
  93   1.0000      -0.338134        -9.2011
  94   1.0000      -0.336600        -9.1594
  95   1.0000      -0.335140        -9.1196
  96   1.0000      -0.332257        -9.0412
  97   1.0000      -0.329054        -8.9540
  98   1.0000      -0.328665        -8.9434
  99   1.0000      -0.327869        -8.9218
 100   1.0000      -0.325905        -8.8683
 101   1.0000      -0.320754        -8.7281
 102   1.0000      -0.316207        -8.6044
 103   1.0000      -0.316045        -8.6000
 104   1.0000      -0.313182        -8.5221
 105   1.0000      -0.309348        -8.4178
 106   1.0000      -0.306752        -8.3471
 107   1.0000      -0.304815        -8.2944
 108   1.0000      -0.301856        -8.2139
 109   1.0000      -0.299998        -8.1634
 110   1.0000      -0.295530        -8.0418
 111   1.0000      -0.294365        -8.0101
 112   1.0000      -0.293533        -7.9874
 113   1.0000      -0.288437        -7.8488
 114   1.0000      -0.286734        -7.8024
 115   1.0000      -0.284895        -7.7524
 116   1.0000      -0.283694        -7.7197
 117   1.0000      -0.283210        -7.7065
 118   1.0000      -0.282295        -7.6816
 119   1.0000      -0.280723        -7.6389
 120   1.0000      -0.279207        -7.5976
 121   1.0000      -0.278992        -7.5917
 122   1.0000      -0.276192        -7.5156
 123   1.0000      -0.275969        -7.5095
 124   1.0000      -0.273750        -7.4491
 125   1.0000      -0.273554        -7.4438
 126   1.0000      -0.271391        -7.3849
 127   1.0000      -0.270851        -7.3702
 128   1.0000      -0.268020        -7.2932
 129   1.0000      -0.266972        -7.2647
 130   1.0000      -0.266504        -7.2519
 131   1.0000      -0.265318        -7.2197
 132   1.0000      -0.262055        -7.1309
 133   1.0000      -0.261908        -7.1269
 134   1.0000      -0.260648        -7.0926
 135   1.0000      -0.259177        -7.0526
 136   1.0000      -0.259017        -7.0482
 137   1.0000      -0.257571        -7.0089
 138   1.0000      -0.256005        -6.9663
 139   1.0000      -0.254721        -6.9313
 140   1.0000      -0.251986        -6.8569
 141   1.0000      -0.251733        -6.8500
 142   1.0000      -0.250727        -6.8226
 143   1.0000      -0.250412        -6.8141
 144   1.0000      -0.249088        -6.7780
 145   1.0000      -0.247527        -6.7355
 146   1.0000      -0.244191        -6.6448
 147   1.0000      -0.238130        -6.4798
 148   1.0000      -0.228485        -6.2174
 149   1.0000      -0.223817        -6.0904
 150   1.0000      -0.217096        -5.9075
 151   1.0000      -0.216006        -5.8778
 152   1.0000      -0.205256        -5.5853
 153   1.0000      -0.156464        -4.2576
 154   0.0000      -0.141052        -3.8382
 155   0.0000      -0.138412        -3.7664
 156   0.0000      -0.137565        -3.7433
 157   0.0000      -0.134908        -3.6710
 158   0.0000      -0.134540        -3.6610

MULLIKEN ATOMIC CHARGES AND SPIN POPULATIONS
--------------------------------------------
   0 Au:   -0.128498   -0.130746
   1 Au:    0.309552   -0.323132
   2 Au:    0.098467   -0.073747
   3 Au:    0.275660   -0.055413
   4 Au:    0.191518   -0.093785
   5 Au:    0.112540   -0.175565
   6 Au:    0.217344   -0.030098
   7 Au:    0.310741   -0.328826
   8 Au:    0.283978   -0.116813
   9 Au:    0.101220   -0.081055
  10 Au:    0.117209   -0.174723
  11 Au:    0.191166   -0.091155
  12 Au:    0.273810   -0.047974
  13 Au:    0.221660   -0.031674
  14 Au:    0.284219   -0.113567
  15 Mn:   -2.860588    3.868273
Sum of atomic charges         :   -0.0000000

LOEWDIN ATOMIC CHARGES AND SPIN POPULATIONS
-------------------------------------------
   0 Au:   -0.015279   -0.111827
   1 Au:    0.045920   -0.307526
   2 Au:    0.017292   -0.087801
   3 Au:    0.075423   -0.078430
   4 Au:    0.026839   -0.125790
   5 Au:    0.030755   -0.143454
   6 Au:    0.034106   -0.079706
   7 Au:    0.046436   -0.313339
   8 Au:    0.039451   -0.112291
   9 Au:    0.018693   -0.091049
  10 Au:    0.031407   -0.142829
  11 Au:    0.028012   -0.125226
  12 Au:    0.073939   -0.075422
  13 Au:    0.034395   -0.079648
  14 Au:    0.039745   -0.110093
  15 Mn:   -0.527134    3.984432

  Mayer bond orders larger than 0.100000
B(  0-Au,  1-Au) :   0.2747 B(  0-Au,  2-Au) :   0.1769 B(  0-Au,  4-Au) :   0.2332
B(  0-Au,  7-Au) :   0.2739 B(  0-Au,  9-Au) :   0.1745 B(  0-Au, 11-Au) :   0.2331
B(  0-Au, 15-Mn) :   0.4956 B(  1-Au,  2-Au) :   0.3174 B(  1-Au, 10-Au) :   0.2631
B(  1-Au, 11-Au) :   0.2518 B(  1-Au, 15-Mn) :   0.1021 B(  2-Au,  3-Au) :   0.1267
B(  2-Au,  4-Au) :   0.2805 B(  2-Au,  6-Au) :   0.2286 B(  2-Au, 15-Mn) :   0.4103
B(  3-Au,  6-Au) :   0.2341 B(  3-Au,  8-Au) :   0.1178 B(  3-Au, 10-Au) :   0.2045
B(  3-Au, 14-Au) :   0.1927 B(  3-Au, 15-Mn) :   0.4533 B(  4-Au,  5-Au) :   0.2198
B(  4-Au,  6-Au) :   0.2717 B(  4-Au,  7-Au) :   0.2547 B(  4-Au, 15-Mn) :   0.2171
B(  5-Au,  6-Au) :   0.1406 B(  5-Au,  7-Au) :   0.2635 B(  5-Au,  8-Au) :   0.2322
B(  5-Au, 12-Au) :   0.2033 B(  5-Au, 15-Mn) :   0.4398 B(  6-Au,  8-Au) :   0.2729
B(  6-Au, 15-Mn) :   0.2951 B(  7-Au,  9-Au) :   0.3156 B(  8-Au, 12-Au) :   0.1926
B(  8-Au, 14-Au) :   0.2527 B(  8-Au, 15-Mn) :   0.3377 B(  9-Au, 11-Au) :   0.2775
B(  9-Au, 12-Au) :   0.1267 B(  9-Au, 13-Au) :   0.2284 B(  9-Au, 15-Mn) :   0.4139
B( 10-Au, 11-Au) :   0.2208 B( 10-Au, 13-Au) :   0.1413 B( 10-Au, 14-Au) :   0.2318
B( 10-Au, 15-Mn) :   0.4377 B( 11-Au, 13-Au) :   0.2708 B( 11-Au, 15-Mn) :   0.2226
B( 12-Au, 13-Au) :   0.2362 B( 12-Au, 14-Au) :   0.1202 B( 12-Au, 15-Mn) :   0.4511
B( 13-Au, 14-Au) :   0.2692 B( 13-Au, 15-Mn) :   0.2947 B( 14-Au, 15-Mn) :   0.3402

FINAL SINGLE POINT ENERGY     -3188.177763684092

DIPOLE MOMENT
-------------
                                X             Y             Z
Electronic contribution:      6.99366       3.58128      -4.53778
Nuclear contribution   :     -7.11677      -3.64312       4.61532
                        -----------------------------------------
Total Dipole Moment    :     -0.12311      -0.06184       0.07753
                        -----------------------------------------
Magnitude (a.u.)       :      0.15808
Magnitude (Debye)      :      0.40182

Rotational constants in cm-1:     0.000993     0.000946     0.000896
Rotational constants in MHz :    29.755566    28.351638    26.855414

                             ****ORCA TERMINATED NORMALLY****
TOTAL RUN TIME: 0 days 0 hours 3 minutes 57 seconds 622 msec
