                         Program Version 5.0.3 -  RELEASE  -
|  1> !R2SCAN def2-TZVP SLOWCONV
|  2> !KDIIS
|  3>
|  4> %scf
|  5>   AutoTRAHIter 200
|  6>   maxiter 400
|  7> end
|  8>
|  9>
| 10> %pal nprocs 16 end
| 11>
| 12> %scf
| 13>   AutoTRAHIter 100
| 14>   maxiter 400
| 15> end
| 16>
| 17> *xyzfile 0 5 pbe.xyz
| 18>
| 19> $new_job
| 20>
| 21> !R2SCAN def2-TZVP SLOWCONV
| 22> !KDIIS
| 23>
| 24> %pal nprocs 16 end
| 25>
| 26> %scf
| 27>   AutoTRAHIter 100
| 28>   maxiter 400
| 29> end
| 30>
| 31> *xyzfile 0 3 pbe.xyz
| 32>
| 33>
| 34>
| 35>
| 36>
| 37>                          ****END OF INPUT****
 Total Charge           Charge          ....    0
 Multiplicity           Mult            ....    5
 Number of Electrons    NEL             ....  310
FINAL SINGLE POINT ENERGY     -3188.750823667911

CARTESIAN COORDINATES (ANGSTROEM)
---------------------------------
  Au     9.035218    8.857150    7.207205
  Au     7.408683   11.124875    7.419177
  Au     8.258792   10.017125    9.753834
  Au     5.661752    9.141089   10.619109
  Au    10.063971    7.867437    9.685446
  Au     8.404744    5.603400    9.618422
  Au     7.980085    7.850705   11.481868
  Au    10.016843    6.245795    7.437085
  Au     5.946672    6.142988   10.782602
  Au     7.637007    6.535665    6.149602
  Au     5.073540    9.679987    7.901873
  Au     6.653382    9.121149    5.653835
  Au     6.033720    5.202430    8.126405
  Au     4.926415    7.126929    6.440993
  Au     4.140659    7.344129    9.067523
  Mn     6.954711    7.757711    8.615944

 Multiplicity           Mult            ....    3
 Number of Electrons    NEL             ....  310
 Basis Dimension        Dim             ....  645

ORBITAL ENERGIES
----------------
                 SPIN UP ORBITALS
  NO   OCC          E(Eh)            E(eV)
   0   1.0000    -235.055014     -6396.1721
   1   1.0000     -27.232499      -741.0340
   2   1.0000     -23.279962      -633.4800
   3   1.0000     -23.279284      -633.4615
   4   1.0000     -23.278528      -633.4409
   5   1.0000      -4.133017      -112.4651
   6   1.0000      -4.128868      -112.3522
   7   1.0000      -4.128733      -112.3485
   8   1.0000      -4.127053      -112.3028
   9   1.0000      -4.126768      -112.2951
  10   1.0000      -4.124878      -112.2436
  11   1.0000      -4.124707      -112.2390
  12   1.0000      -4.124552      -112.2348
  13   1.0000      -4.124400      -112.2306
  14   1.0000      -4.123363      -112.2024
  15   1.0000      -4.123314      -112.2011
  16   1.0000      -4.121240      -112.1446
  17   1.0000      -4.121034      -112.1390
  18   1.0000      -4.115189      -111.9800
  19   1.0000      -4.114966      -111.9739
  20   1.0000      -3.254164       -88.5503
  21   1.0000      -2.319638       -63.1206
  22   1.0000      -2.318889       -63.1002
  23   1.0000      -2.317523       -63.0630
  24   1.0000      -2.317450       -63.0610
  25   1.0000      -2.317397       -63.0596
  26   1.0000      -2.315534       -63.0089
  27   1.0000      -2.315324       -63.0032
  28   1.0000      -2.314895       -62.9915
  29   1.0000      -2.314732       -62.9871
  30   1.0000      -2.314055       -62.9686
  31   1.0000      -2.313700       -62.9590
  32   1.0000      -2.313119       -62.9432
  33   1.0000      -2.312964       -62.9389
  34   1.0000      -2.312677       -62.9312
  35   1.0000      -2.312340       -62.9220
  36   1.0000      -2.312190       -62.9179
  37   1.0000      -2.311945       -62.9112
  38   1.0000      -2.311732       -62.9054
  39   1.0000      -2.311497       -62.8990
  40   1.0000      -2.311239       -62.8920
  41   1.0000      -2.310524       -62.8726
  42   1.0000      -2.310415       -62.8696
  43   1.0000      -2.309868       -62.8547
  44   1.0000      -2.309741       -62.8513
  45   1.0000      -2.309345       -62.8405
  46   1.0000      -2.309137       -62.8348
  47   1.0000      -2.308531       -62.8183
  48   1.0000      -2.308227       -62.8100
  49   1.0000      -2.308157       -62.8082
  50   1.0000      -2.307742       -62.7969
  51   1.0000      -2.307662       -62.7947
  52   1.0000      -2.307468       -62.7894
  53   1.0000      -2.307149       -62.7807
  54   1.0000      -2.306730       -62.7693
  55   1.0000      -2.306619       -62.7663
  56   1.0000      -2.306197       -62.7548
  57   1.0000      -2.306031       -62.7503
  58   1.0000      -2.305011       -62.7225
  59   1.0000      -2.304809       -62.7170
  60   1.0000      -2.301216       -62.6193
  61   1.0000      -2.301039       -62.6144
  62   1.0000      -2.299635       -62.5763
  63   1.0000      -2.299362       -62.5688
  64   1.0000      -2.298754       -62.5523
  65   1.0000      -2.298509       -62.5456
  66   1.0000      -2.111718       -57.4628
  67   1.0000      -2.111176       -57.4480
  68   1.0000      -2.109111       -57.3918
  69   1.0000      -0.445677       -12.1275
  70   1.0000      -0.402364       -10.9489
  71   1.0000      -0.400896       -10.9089
  72   1.0000      -0.394547       -10.7362
  73   1.0000      -0.391333       -10.6487
  74   1.0000      -0.390979       -10.6391
  75   1.0000      -0.386996       -10.5307
  76   1.0000      -0.384732       -10.4691
  77   1.0000      -0.380482       -10.3535
  78   1.0000      -0.380145       -10.3443
  79   1.0000      -0.373350       -10.1594
  80   1.0000      -0.372648       -10.1403
  81   1.0000      -0.368389       -10.0244
  82   1.0000      -0.368197       -10.0191
  83   1.0000      -0.368147       -10.0178
  84   1.0000      -0.367993       -10.0136
  85   1.0000      -0.365615        -9.9489
  86   1.0000      -0.364334        -9.9140
  87   1.0000      -0.363938        -9.9033
  88   1.0000      -0.361563        -9.8386
  89   1.0000      -0.360288        -9.8039
  90   1.0000      -0.356172        -9.6919
  91   1.0000      -0.356081        -9.6895
  92   1.0000      -0.354260        -9.6399
  93   1.0000      -0.347022        -9.4429
  94   1.0000      -0.346562        -9.4304
  95   1.0000      -0.344312        -9.3692
  96   1.0000      -0.342226        -9.3124
  97   1.0000      -0.341970        -9.3055
  98   1.0000      -0.338483        -9.2106
  99   1.0000      -0.336829        -9.1656
 100   1.0000      -0.335319        -9.1245
 101   1.0000      -0.329914        -8.9774
 102   1.0000      -0.329200        -8.9580
 103   1.0000      -0.326017        -8.8714
 104   1.0000      -0.324950        -8.8423
 105   1.0000      -0.321630        -8.7520
 106   1.0000      -0.321354        -8.7445
 107   1.0000      -0.316742        -8.6190
 108   1.0000      -0.311438        -8.4747
 109   1.0000      -0.309218        -8.4142
 110   1.0000      -0.308818        -8.4034
 111   1.0000      -0.303963        -8.2713
 112   1.0000      -0.303500        -8.2587
 113   1.0000      -0.301037        -8.1916
 114   1.0000      -0.300120        -8.1667
 115   1.0000      -0.295421        -8.0388
 116   1.0000      -0.295198        -8.0327
 117   1.0000      -0.292278        -7.9533
 118   1.0000      -0.290802        -7.9131
 119   1.0000      -0.288949        -7.8627
 120   1.0000      -0.287708        -7.8289
 121   1.0000      -0.287223        -7.8157
 122   1.0000      -0.283856        -7.7241
 123   1.0000      -0.282620        -7.6905
 124   1.0000      -0.282239        -7.6801
 125   1.0000      -0.281673        -7.6647
 126   1.0000      -0.279100        -7.5947
 127   1.0000      -0.278080        -7.5669
 128   1.0000      -0.278006        -7.5649
 129   1.0000      -0.276597        -7.5266
 130   1.0000      -0.275235        -7.4895
 131   1.0000      -0.274597        -7.4722
 132   1.0000      -0.273374        -7.4389
 133   1.0000      -0.272776        -7.4226
 134   1.0000      -0.270320        -7.3558
 135   1.0000      -0.269202        -7.3254
 136   1.0000      -0.268866        -7.3162
 137   1.0000      -0.268248        -7.2994
 138   1.0000      -0.265805        -7.2329
 139   1.0000      -0.264851        -7.2070
 140   1.0000      -0.264763        -7.2046
 141   1.0000      -0.264681        -7.2023
 142   1.0000      -0.261753        -7.1227
 143   1.0000      -0.261096        -7.1048
 144   1.0000      -0.258345        -7.0299
 145   1.0000      -0.258034        -7.0214
 146   1.0000      -0.257003        -6.9934
 147   1.0000      -0.254620        -6.9286
 148   1.0000      -0.254534        -6.9262
 149   1.0000      -0.253581        -6.9003
 150   1.0000      -0.251306        -6.8384
 151   1.0000      -0.247934        -6.7466
 152   1.0000      -0.243024        -6.6130
 153   1.0000      -0.222627        -6.0580
 154   1.0000      -0.216046        -5.8789
 155   1.0000      -0.206771        -5.6265
 156   0.0000      -0.202614        -5.5134
 157   0.0000      -0.188477        -5.1287
 158   0.0000      -0.146928        -3.9981
 159   0.0000      -0.128320        -3.4918
 160   0.0000      -0.126124        -3.4320

                 SPIN DOWN ORBITALS
  NO   OCC          E(Eh)            E(eV)
   0   1.0000    -235.054171     -6396.1492
   1   1.0000     -27.144286      -738.6336
   2   1.0000     -23.212846      -631.6536
   3   1.0000     -23.211156      -631.6077
   4   1.0000     -23.210974      -631.6027
   5   1.0000      -4.134654      -112.5096
   6   1.0000      -4.129403      -112.3668
   7   1.0000      -4.129292      -112.3638
   8   1.0000      -4.127432      -112.3131
   9   1.0000      -4.127151      -112.3055
  10   1.0000      -4.125334      -112.2560
  11   1.0000      -4.125154      -112.2512
  12   1.0000      -4.124872      -112.2435
  13   1.0000      -4.124685      -112.2384
  14   1.0000      -4.124040      -112.2208
  15   1.0000      -4.123993      -112.2196
  16   1.0000      -4.122323      -112.1741
  17   1.0000      -4.122117      -112.1685
  18   1.0000      -4.118197      -112.0618
  19   1.0000      -4.117907      -112.0539
  20   1.0000      -3.043734       -82.8242
  21   1.0000      -2.322446       -63.1970
  22   1.0000      -2.319372       -63.1133
  23   1.0000      -2.318961       -63.1021
  24   1.0000      -2.317999       -63.0760
  25   1.0000      -2.317893       -63.0731
  26   1.0000      -2.316157       -63.0258
  27   1.0000      -2.315959       -63.0205
  28   1.0000      -2.315067       -62.9962
  29   1.0000      -2.314934       -62.9926
  30   1.0000      -2.314664       -62.9852
  31   1.0000      -2.314237       -62.9736
  32   1.0000      -2.313637       -62.9573
  33   1.0000      -2.313137       -62.9437
  34   1.0000      -2.312813       -62.9348
  35   1.0000      -2.312660       -62.9307
  36   1.0000      -2.312432       -62.9245
  37   1.0000      -2.312140       -62.9165
  38   1.0000      -2.312043       -62.9139
  39   1.0000      -2.311813       -62.9076
  40   1.0000      -2.311693       -62.9044
  41   1.0000      -2.310866       -62.8819
  42   1.0000      -2.310591       -62.8744
  43   1.0000      -2.310458       -62.8708
  44   1.0000      -2.310227       -62.8645
  45   1.0000      -2.309915       -62.8560
  46   1.0000      -2.309895       -62.8554
  47   1.0000      -2.309294       -62.8391
  48   1.0000      -2.308806       -62.8258
  49   1.0000      -2.308606       -62.8204
  50   1.0000      -2.308463       -62.8165
  51   1.0000      -2.308407       -62.8150
  52   1.0000      -2.308046       -62.8051
  53   1.0000      -2.307706       -62.7959
  54   1.0000      -2.307569       -62.7921
  55   1.0000      -2.307391       -62.7873
  56   1.0000      -2.306965       -62.7757
  57   1.0000      -2.306865       -62.7730
  58   1.0000      -2.306113       -62.7525
  59   1.0000      -2.305934       -62.7477
  60   1.0000      -2.303830       -62.6904
  61   1.0000      -2.303588       -62.6838
  62   1.0000      -2.303238       -62.6743
  63   1.0000      -2.302940       -62.6662
  64   1.0000      -2.301711       -62.6327
  65   1.0000      -2.301442       -62.6254
  66   1.0000      -1.903044       -51.7844
  67   1.0000      -1.901507       -51.7426
  68   1.0000      -1.900201       -51.7071
  69   1.0000      -0.443080       -12.0568
  70   1.0000      -0.403799       -10.9879
  71   1.0000      -0.403541       -10.9809
  72   1.0000      -0.396458       -10.7882
  73   1.0000      -0.386153       -10.5078
  74   1.0000      -0.383691       -10.4408
  75   1.0000      -0.382465       -10.4074
  76   1.0000      -0.380223       -10.3464
  77   1.0000      -0.379459       -10.3256
  78   1.0000      -0.375917       -10.2292
  79   1.0000      -0.374195       -10.1824
  80   1.0000      -0.372906       -10.1473
  81   1.0000      -0.370663       -10.0863
  82   1.0000      -0.369361       -10.0508
  83   1.0000      -0.369238       -10.0475
  84   1.0000      -0.369027       -10.0417
  85   1.0000      -0.367013        -9.9869
  86   1.0000      -0.365730        -9.9520
  87   1.0000      -0.364759        -9.9256
  88   1.0000      -0.363238        -9.8842
  89   1.0000      -0.359761        -9.7896
  90   1.0000      -0.356819        -9.7095
  91   1.0000      -0.356438        -9.6992
  92   1.0000      -0.355652        -9.6778
  93   1.0000      -0.347885        -9.4664
  94   1.0000      -0.346746        -9.4354
  95   1.0000      -0.345236        -9.3943
  96   1.0000      -0.342478        -9.3193
  97   1.0000      -0.338743        -9.2177
  98   1.0000      -0.338645        -9.2150
  99   1.0000      -0.337890        -9.1945
 100   1.0000      -0.336103        -9.1458
 101   1.0000      -0.330663        -8.9978
 102   1.0000      -0.325922        -8.8688
 103   1.0000      -0.325764        -8.8645
 104   1.0000      -0.322851        -8.7852
 105   1.0000      -0.318876        -8.6771
 106   1.0000      -0.316278        -8.6064
 107   1.0000      -0.314057        -8.5459
 108   1.0000      -0.311051        -8.4641
 109   1.0000      -0.309361        -8.4181
 110   1.0000      -0.305212        -8.3052
 111   1.0000      -0.303399        -8.2559
 112   1.0000      -0.302531        -8.2323
 113   1.0000      -0.297367        -8.0918
 114   1.0000      -0.295637        -8.0447
 115   1.0000      -0.294180        -8.0050
 116   1.0000      -0.292939        -7.9713
 117   1.0000      -0.292234        -7.9521
 118   1.0000      -0.291381        -7.9289
 119   1.0000      -0.289925        -7.8892
 120   1.0000      -0.288556        -7.8520
 121   1.0000      -0.288047        -7.8382
 122   1.0000      -0.285355        -7.7649
 123   1.0000      -0.284912        -7.7528
 124   1.0000      -0.282541        -7.6883
 125   1.0000      -0.282339        -7.6828
 126   1.0000      -0.280639        -7.6366
 127   1.0000      -0.279756        -7.6125
 128   1.0000      -0.277018        -7.5380
 129   1.0000      -0.275747        -7.5035
 130   1.0000      -0.275382        -7.4935
 131   1.0000      -0.274269        -7.4632
 132   1.0000      -0.270857        -7.3704
 133   1.0000      -0.270650        -7.3648
 134   1.0000      -0.269360        -7.3297
 135   1.0000      -0.267915        -7.2904
 136   1.0000      -0.267551        -7.2804
 137   1.0000      -0.265890        -7.2352
 138   1.0000      -0.264411        -7.1950
 139   1.0000      -0.263010        -7.1569
 140   1.0000      -0.260289        -7.0828
 141   1.0000      -0.259361        -7.0576
 142   1.0000      -0.258726        -7.0403
 143   1.0000      -0.257985        -7.0201
 144   1.0000      -0.257188        -6.9984
 145   1.0000      -0.255595        -6.9551
 146   1.0000      -0.251680        -6.8486
 147   1.0000      -0.245539        -6.6815
 148   1.0000      -0.232086        -6.3154
 149   1.0000      -0.226903        -6.1743
 150   1.0000      -0.219751        -5.9797
 151   1.0000      -0.218076        -5.9342
 152   1.0000      -0.207273        -5.6402
 153   1.0000      -0.156098        -4.2476
 154   0.0000      -0.135214        -3.6793
 155   0.0000      -0.132078        -3.5940
 156   0.0000      -0.130570        -3.5530
 157   0.0000      -0.124000        -3.3742
 158   0.0000      -0.123839        -3.3698

MULLIKEN ATOMIC CHARGES AND SPIN POPULATIONS
--------------------------------------------
   0 Au:   -0.112877   -0.112984
   1 Au:    0.258418   -0.398328
   2 Au:    0.094082   -0.078626
   3 Au:    0.252134   -0.069424
   4 Au:    0.181303   -0.094880
   5 Au:    0.117846   -0.180986
   6 Au:    0.187168   -0.044461
   7 Au:    0.259066   -0.406965
   8 Au:    0.257940   -0.137875
   9 Au:    0.097925   -0.087304
  10 Au:    0.122374   -0.180480
  11 Au:    0.179929   -0.092652
  12 Au:    0.249257   -0.060133
  13 Au:    0.191397   -0.046314
  14 Au:    0.258724   -0.133183
  15 Mn:   -2.594686    4.124595
Sum of atomic charges         :   -0.0000000

LOEWDIN ATOMIC CHARGES AND SPIN POPULATIONS
-------------------------------------------
   0 Au:   -0.019697   -0.122471
   1 Au:    0.033627   -0.348709
   2 Au:    0.009450   -0.104717
   3 Au:    0.069489   -0.091947
   4 Au:    0.027642   -0.129588
   5 Au:    0.030111   -0.149404
   6 Au:    0.026269   -0.094213
   7 Au:    0.033978   -0.356376
   8 Au:    0.032811   -0.128763
   9 Au:    0.011014   -0.108593
  10 Au:    0.030775   -0.148800
  11 Au:    0.028554   -0.129551
  12 Au:    0.067779   -0.088243
  13 Au:    0.026525   -0.094105
  14 Au:    0.033332   -0.125847
  15 Mn:   -0.441658    4.221330

  Mayer bond orders larger than 0.100000
B(  0-Au,  1-Au) :   0.2488 B(  0-Au,  2-Au) :   0.1595 B(  0-Au,  4-Au) :   0.2160
B(  0-Au,  7-Au) :   0.2473 B(  0-Au,  9-Au) :   0.1571 B(  0-Au, 11-Au) :   0.2154
B(  0-Au, 15-Mn) :   0.5116 B(  1-Au,  2-Au) :   0.3181 B(  1-Au, 10-Au) :   0.2341
B(  1-Au, 11-Au) :   0.2381 B(  2-Au,  3-Au) :   0.1126 B(  2-Au,  4-Au) :   0.2777
B(  2-Au,  6-Au) :   0.2260 B(  2-Au, 15-Mn) :   0.3931 B(  3-Au,  6-Au) :   0.2292
B(  3-Au,  8-Au) :   0.1061 B(  3-Au, 10-Au) :   0.2059 B(  3-Au, 14-Au) :   0.1833
B(  3-Au, 15-Mn) :   0.4478 B(  4-Au,  5-Au) :   0.1959 B(  4-Au,  6-Au) :   0.2600
B(  4-Au,  7-Au) :   0.2407 B(  4-Au, 15-Mn) :   0.2076 B(  5-Au,  6-Au) :   0.1179
B(  5-Au,  7-Au) :   0.2344 B(  5-Au,  8-Au) :   0.2256 B(  5-Au, 12-Au) :   0.2037
B(  5-Au, 15-Mn) :   0.4555 B(  6-Au,  8-Au) :   0.2661 B(  6-Au, 15-Mn) :   0.2719
B(  7-Au,  9-Au) :   0.3159 B(  8-Au, 12-Au) :   0.1830 B(  8-Au, 14-Au) :   0.2411
B(  8-Au, 15-Mn) :   0.3206 B(  9-Au, 11-Au) :   0.2746 B(  9-Au, 12-Au) :   0.1127
B(  9-Au, 13-Au) :   0.2261 B(  9-Au, 15-Mn) :   0.3965 B( 10-Au, 11-Au) :   0.1974
B( 10-Au, 13-Au) :   0.1184 B( 10-Au, 14-Au) :   0.2256 B( 10-Au, 15-Mn) :   0.4531
B( 11-Au, 13-Au) :   0.2594 B( 11-Au, 15-Mn) :   0.2127 B( 12-Au, 13-Au) :   0.2314
B( 12-Au, 14-Au) :   0.1088 B( 12-Au, 15-Mn) :   0.4457 B( 13-Au, 14-Au) :   0.2618
B( 13-Au, 15-Mn) :   0.2715 B( 14-Au, 15-Mn) :   0.3240

FINAL SINGLE POINT ENERGY     -3188.700207845313

DIPOLE MOMENT
-------------
                                X             Y             Z
Electronic contribution:      6.95558       3.56302      -4.51229
Nuclear contribution   :     -7.11677      -3.64312       4.61532
                        -----------------------------------------
Total Dipole Moment    :     -0.16119      -0.08009       0.10303
                        -----------------------------------------
Magnitude (a.u.)       :      0.20739
Magnitude (Debye)      :      0.52715

Rotational constants in cm-1:     0.000993     0.000946     0.000896
Rotational constants in MHz :    29.755566    28.351638    26.855414

                             ****ORCA TERMINATED NORMALLY****
TOTAL RUN TIME: 0 days 0 hours 4 minutes 50 seconds 390 msec
