                         Program Version 5.0.3 -  RELEASE  -
|  1> !CASSCF def2-TZVP def2-TZVP/C
|  2> !MOREAD RIJCOSX
|  3> %maxcore 6000
|  4> %moinp "pbe.qro"
|  5> %pal nprocs 2 end
|  6>
|  7> %casscf
|  8>  mult 5,3
|  9>  bweight 1,1
| 10>  nroots 5,45
| 11>  nel 6
| 12>  norb 5
| 13> end
| 14>
| 15>
| 16> *xyzfile 0 5 pbe.xyz
| 17>
| 18>
| 19>                          ****END OF INPUT****

CARTESIAN COORDINATES (ANGSTROEM)
---------------------------------
  Au     6.110258    7.753569    8.464928
  Au     7.021975    5.341953    9.459248
  Au     8.850913    4.597930    5.778213
  Au     7.021015    6.477830    6.188066
  Au     8.846101    3.610362    8.607351
  Au    13.404123    6.222639    7.950417
  Au    11.069018    7.477487    8.360565
  Au    11.248834    4.808644    7.440264
  Au    10.391012    2.427915    6.609431
  Au     8.694286    8.555076    8.727019
  Fe     8.870056    6.161367    7.910426

 Total Charge           Charge          ....    0
 Multiplicity           Mult            ....    5
 Number of Electrons    NEL             ....  216
 Basis Dimension        Dim             ....  445

ORBITAL ENERGIES
----------------

  NO   OCC          E(Eh)            E(eV)
   0   2.0000    -261.380585     -7112.5273
   1   2.0000     -31.946491      -869.3082
   2   2.0000     -27.426362      -746.3092
   3   2.0000     -27.426207      -746.3050
   4   2.0000     -27.425627      -746.2892
   5   2.0000      -4.723606      -128.5358
   6   2.0000      -4.715587      -128.3177
   7   2.0000      -4.715506      -128.3154
   8   2.0000      -4.713670      -128.2655
   9   2.0000      -4.711070      -128.1947
  10   2.0000      -4.704554      -128.0174
  11   2.0000      -4.704355      -128.0120
  12   2.0000      -4.701521      -127.9349
  13   2.0000      -4.695679      -127.7759
  14   2.0000      -4.693711      -127.7224
  15   2.0000      -4.180071      -113.7455
  16   2.0000      -2.764964       -75.2385
  17   2.0000      -2.762207       -75.1635
  18   2.0000      -2.760945       -75.1291
  19   2.0000      -2.759368       -75.0862
  20   2.0000      -2.758132       -75.0526
  21   2.0000      -2.755600       -74.9837
  22   2.0000      -2.755131       -74.9709
  23   2.0000      -2.753482       -74.9261
  24   2.0000      -2.752637       -74.9030
  25   2.0000      -2.751232       -74.8648
  26   2.0000      -2.749936       -74.8296
  27   2.0000      -2.749696       -74.8230
  28   2.0000      -2.747952       -74.7756
  29   2.0000      -2.747436       -74.7615
  30   2.0000      -2.746716       -74.7420
  31   2.0000      -2.746320       -74.7312
  32   2.0000      -2.746215       -74.7283
  33   2.0000      -2.742075       -74.6156
  34   2.0000      -2.741894       -74.6107
  35   2.0000      -2.741008       -74.5866
  36   2.0000      -2.739571       -74.5475
  37   2.0000      -2.739161       -74.5364
  38   2.0000      -2.738782       -74.5260
  39   2.0000      -2.736924       -74.4755
  40   2.0000      -2.735972       -74.4496
  41   2.0000      -2.735685       -74.4418
  42   2.0000      -2.733366       -74.3787
  43   2.0000      -2.732044       -74.3427
  44   2.0000      -2.730228       -74.2933
  45   2.0000      -2.728154       -74.2368
  46   2.0000      -2.727567       -74.2209
  47   2.0000      -2.727158       -74.2097
  48   2.0000      -2.726934       -74.2037
  49   2.0000      -0.572612       -15.5816
  50   2.0000      -0.561006       -15.2658
  51   2.0000      -0.550907       -14.9909
  52   2.0000      -0.542542       -14.7633
  53   2.0000      -0.542297       -14.7566
  54   2.0000      -0.536665       -14.6034
  55   2.0000      -0.531499       -14.4628
  56   2.0000      -0.526783       -14.3345
  57   2.0000      -0.521395       -14.1879
  58   2.0000      -0.520838       -14.1727
  59   2.0000      -0.516490       -14.0544
  60   2.0000      -0.513601       -13.9758
  61   2.0000      -0.508885       -13.8475
  62   2.0000      -0.505190       -13.7469
  63   2.0000      -0.504893       -13.7388
  64   2.0000      -0.499364       -13.5884
  65   2.0000      -0.494010       -13.4427
  66   2.0000      -0.492550       -13.4030
  67   2.0000      -0.489416       -13.3177
  68   2.0000      -0.488693       -13.2980
  69   2.0000      -0.487972       -13.2784
  70   2.0000      -0.478812       -13.0291
  71   2.0000      -0.477005       -12.9800
  72   2.0000      -0.474630       -12.9153
  73   2.0000      -0.467202       -12.7132
  74   2.0000      -0.464532       -12.6405
  75   2.0000      -0.464123       -12.6294
  76   2.0000      -0.463351       -12.6084
  77   2.0000      -0.458853       -12.4860
  78   2.0000      -0.457567       -12.4510
  79   2.0000      -0.457489       -12.4489
  80   2.0000      -0.454241       -12.3605
  81   2.0000      -0.453506       -12.3405
  82   2.0000      -0.449020       -12.2185
  83   2.0000      -0.448135       -12.1944
  84   2.0000      -0.447651       -12.1812
  85   2.0000      -0.445212       -12.1148
  86   2.0000      -0.442727       -12.0472
  87   2.0000      -0.442276       -12.0349
  88   2.0000      -0.437394       -11.9021
  89   2.0000      -0.435303       -11.8452
  90   2.0000      -0.432797       -11.7770
  91   2.0000      -0.426383       -11.6025
  92   2.0000      -0.424521       -11.5518
  93   2.0000      -0.420536       -11.4434
  94   2.0000      -0.417582       -11.3630
  95   2.0000      -0.412022       -11.2117
  96   2.0000      -0.411419       -11.1953
  97   2.0000      -0.407018       -11.0755
  98   2.0000      -0.403220       -10.9722
  99   2.0000      -0.392028       -10.6676
 100   2.0000      -0.358479        -9.7547
 101   2.0000      -0.343821        -9.3559
 102   2.0000      -0.277667        -7.5557
 103   2.0000      -0.258576        -7.0362
 104   2.0000      -0.235747        -6.4150
 105   1.2000      -0.254153        -6.9158
 106   1.2000      -0.258922        -7.0456
 107   1.2000      -0.255082        -6.9411
 108   1.2000      -0.262688        -7.1481
 109   1.2000      -0.259363        -7.0576
 110   0.0000      -0.024082        -0.6553
 111   0.0000      -0.013465        -0.3664
 112   0.0000       0.005077         0.1381
 113   0.0000       0.009511         0.2588
 114   0.0000       0.028215         0.7678

MULLIKEN ATOMIC CHARGES AND SPIN DENSITIES
------------------------------------------
   0 Au:    0.140933    0.003120
   1 Au:    0.189310    0.010534
   2 Au:    0.050270    0.008436
   3 Au:    0.187530    0.010563
   4 Au:    0.049083    0.008426
   5 Au:    0.509681    0.001933
   6 Au:   -0.167892    0.009791
   7 Au:   -0.813607    0.006877
   8 Au:    0.501894    0.002348
   9 Au:    0.239243    0.010312
  10 Fe:   -0.886446    2.927660
Sum of atomic charges       :    0.0000000

LOEWDIN ATOMIC CHARGES AND SPIN DENSITIES
-----------------------------------------
   0 Au:    0.009695    0.004807
   1 Au:    0.003802    0.014233
   2 Au:   -0.025119    0.011005
   3 Au:    0.002753    0.014249
   4 Au:   -0.024873    0.010973
   5 Au:    0.151820    0.002736
   6 Au:   -0.066303    0.013094
   7 Au:   -0.217448    0.010497
   8 Au:    0.176420    0.002999
   9 Au:    0.001135    0.014040
  10 Fe:   -0.011880    2.901367

  Mayer bond orders larger than 0.100000
B(  0-Au,  1-Au) :   0.2470 B(  0-Au,  3-Au) :   0.2479 B(  0-Au,  9-Au) :   0.2642
B(  0-Au, 10-Fe) :   0.1994 B(  1-Au,  4-Au) :   0.5227 B(  1-Au, 10-Fe) :   0.4710
B(  2-Au,  3-Au) :   0.5236 B(  2-Au,  7-Au) :   0.2184 B(  2-Au,  8-Au) :   0.1688
B(  2-Au, 10-Fe) :   0.5181 B(  3-Au, 10-Fe) :   0.4707 B(  4-Au,  7-Au) :   0.2184
B(  4-Au,  8-Au) :   0.1697 B(  4-Au, 10-Fe) :   0.5203 B(  5-Au,  6-Au) :   0.2835
B(  5-Au,  7-Au) :   0.6105 B(  6-Au,  7-Au) :   0.4492 B(  6-Au,  9-Au) :   0.4669
B(  6-Au, 10-Fe) :   0.5705 B(  7-Au,  8-Au) :   0.5084 B(  7-Au, 10-Fe) :   0.1889
B(  9-Au, 10-Fe) :   0.4900

FINAL SINGLE POINT ENERGY     -2610.513813322051

DIPOLE MOMENT
-------------
                                X             Y             Z
Electronic contribution:     15.36119     -17.08385      -5.96966
Nuclear contribution   :    -14.98823      16.44007       5.75276
                        -----------------------------------------
Total Dipole Moment    :      0.37295      -0.64378      -0.21689
                        -----------------------------------------
Magnitude (a.u.)       :      0.77498
Magnitude (Debye)      :      1.96984

Rotational constants in cm-1:     0.002027     0.001391     0.001034
Rotational constants in MHz :    60.776815    41.706928    31.000835

                             ****ORCA TERMINATED NORMALLY****
TOTAL RUN TIME: 0 days 0 hours 28 minutes 28 seconds 949 msec
