                         Program Version 5.0.3 -  RELEASE  -
|  1> !CASSCF def2-TZVP def2-TZVP/C
|  2> !MOREAD RIJCOSX
|  3> %maxcore 6000
|  4> %moinp "pbe.qro"
|  5> %pal nprocs 16 end
|  6>
|  7> %casscf
|  8>  mult 6,4
|  9>  bweight 1,1
| 10>  nroots 1,24
| 11>  nel 5
| 12>  norb 5
| 13> end
| 14>
| 15>
| 16> *xyzfile 0 6 pbe.xyz
| 17>
| 18>
| 19>                          ****END OF INPUT****

CARTESIAN COORDINATES (ANGSTROEM)
---------------------------------
  Au     7.352422    6.785369    5.845358
  Au     6.833873    3.336309    9.061775
  Au     8.343084    7.071823    8.399300
  Au     7.056298    5.538871   10.521193
  Au     7.403241    8.233172   10.707506
  Au     5.657641    8.307583    8.608735
  Au     8.416078    4.624271    7.110134
  Au     4.625557    7.271881    6.389222
  Au     5.389934    4.768558    5.513538
  Au     6.740559    2.558264    6.425990
  Mn     6.020719    5.664008    8.017791

 Total Charge           Charge          ....    0
 Multiplicity           Mult            ....    6
 Number of Electrons    NEL             ....  215
 Basis Dimension        Dim             ....  445

ORBITAL ENERGIES
----------------

  NO   OCC          E(Eh)            E(eV)
   0   2.0000    -240.559816     -6545.9654
   1   2.0000     -29.136070      -792.8328
   2   2.0000     -24.841510      -675.9719
   3   2.0000     -24.840642      -675.9482
   4   2.0000     -24.840185      -675.9358
   5   2.0000      -4.724232      -128.5529
   6   2.0000      -4.723803      -128.5412
   7   2.0000      -4.722638      -128.5095
   8   2.0000      -4.716931      -128.3542
   9   2.0000      -4.716160      -128.3332
  10   2.0000      -4.709329      -128.1474
  11   2.0000      -4.704145      -128.0063
  12   2.0000      -4.701923      -127.9458
  13   2.0000      -4.701422      -127.9322
  14   2.0000      -4.696390      -127.7953
  15   2.0000      -3.841032      -104.5198
  16   2.0000      -2.767183       -75.2989
  17   2.0000      -2.762712       -75.1772
  18   2.0000      -2.761772       -75.1516
  19   2.0000      -2.761180       -75.1355
  20   2.0000      -2.760502       -75.1171
  21   2.0000      -2.760073       -75.1054
  22   2.0000      -2.757026       -75.0225
  23   2.0000      -2.756702       -75.0137
  24   2.0000      -2.756203       -75.0001
  25   2.0000      -2.755634       -74.9846
  26   2.0000      -2.755051       -74.9688
  27   2.0000      -2.752829       -74.9083
  28   2.0000      -2.751687       -74.8772
  29   2.0000      -2.749429       -74.8158
  30   2.0000      -2.749133       -74.8077
  31   2.0000      -2.745861       -74.7187
  32   2.0000      -2.744503       -74.6817
  33   2.0000      -2.740976       -74.5857
  34   2.0000      -2.740819       -74.5815
  35   2.0000      -2.740008       -74.5594
  36   2.0000      -2.738914       -74.5296
  37   2.0000      -2.737836       -74.5003
  38   2.0000      -2.736704       -74.4695
  39   2.0000      -2.736095       -74.4529
  40   2.0000      -2.734961       -74.4221
  41   2.0000      -2.732838       -74.3643
  42   2.0000      -2.732766       -74.3623
  43   2.0000      -2.732462       -74.3541
  44   2.0000      -2.730161       -74.2915
  45   2.0000      -2.729485       -74.2731
  46   2.0000      -2.509579       -68.2891
  47   2.0000      -2.508337       -68.2553
  48   2.0000      -2.507912       -68.2438
  49   2.0000      -0.573190       -15.5973
  50   2.0000      -0.563788       -15.3414
  51   2.0000      -0.553778       -15.0691
  52   2.0000      -0.547224       -14.8907
  53   2.0000      -0.543298       -14.7839
  54   2.0000      -0.541772       -14.7424
  55   2.0000      -0.538975       -14.6662
  56   2.0000      -0.536416       -14.5966
  57   2.0000      -0.534584       -14.5468
  58   2.0000      -0.531426       -14.4608
  59   2.0000      -0.528335       -14.3767
  60   2.0000      -0.523374       -14.2417
  61   2.0000      -0.519489       -14.1360
  62   2.0000      -0.516093       -14.0436
  63   2.0000      -0.513503       -13.9731
  64   2.0000      -0.508644       -13.8409
  65   2.0000      -0.506715       -13.7884
  66   2.0000      -0.502648       -13.6778
  67   2.0000      -0.498669       -13.5695
  68   2.0000      -0.492422       -13.3995
  69   2.0000      -0.489817       -13.3286
  70   2.0000      -0.486452       -13.2370
  71   2.0000      -0.481152       -13.0928
  72   2.0000      -0.479578       -13.0500
  73   2.0000      -0.475579       -12.9411
  74   2.0000      -0.469902       -12.7867
  75   2.0000      -0.467929       -12.7330
  76   2.0000      -0.465083       -12.6555
  77   2.0000      -0.461966       -12.5707
  78   2.0000      -0.460671       -12.5355
  79   2.0000      -0.457990       -12.4625
  80   2.0000      -0.457181       -12.4405
  81   2.0000      -0.454986       -12.3808
  82   2.0000      -0.452308       -12.3079
  83   2.0000      -0.447143       -12.1674
  84   2.0000      -0.445966       -12.1354
  85   2.0000      -0.443071       -12.0566
  86   2.0000      -0.441666       -12.0184
  87   2.0000      -0.440007       -11.9732
  88   2.0000      -0.438463       -11.9312
  89   2.0000      -0.435490       -11.8503
  90   2.0000      -0.433820       -11.8048
  91   2.0000      -0.432246       -11.7620
  92   2.0000      -0.429817       -11.6959
  93   2.0000      -0.428026       -11.6472
  94   2.0000      -0.421780       -11.4772
  95   2.0000      -0.419334       -11.4107
  96   2.0000      -0.417707       -11.3664
  97   2.0000      -0.410309       -11.1651
  98   2.0000      -0.400946       -10.9103
  99   2.0000      -0.389206       -10.5908
 100   2.0000      -0.357366        -9.7244
 101   2.0000      -0.339183        -9.2296
 102   2.0000      -0.281875        -7.6702
 103   2.0000      -0.243559        -6.6276
 104   2.0000      -0.223162        -6.0726
 105   1.0000      -0.149189        -4.0596
 106   1.0000      -0.162379        -4.4186
 107   1.0000      -0.162704        -4.4274
 108   1.0000      -0.161005        -4.3812
 109   1.0000      -0.157793        -4.2938
 110   0.0000      -0.018246        -0.4965
 111   0.0000      -0.012089        -0.3290
 112   0.0000      -0.008614        -0.2344
 113   0.0000       0.003917         0.1066
 114   0.0000       0.018075         0.4918

MULLIKEN ATOMIC CHARGES AND SPIN DENSITIES
------------------------------------------
   0 Au:    0.257274    0.006563
   1 Au:    0.115944    0.010180
   2 Au:   -0.146828    0.008320
   3 Au:   -0.048925    0.011286
   4 Au:    0.308699    0.004192
   5 Au:   -0.143405    0.012963
   6 Au:    0.030361    0.007651
   7 Au:    0.293846    0.009553
   8 Au:   -0.100884    0.012440
   9 Au:    0.212328    0.004727
  10 Mn:   -0.778410    3.912125
Sum of atomic charges       :    0.0000000

LOEWDIN ATOMIC CHARGES AND SPIN DENSITIES
-----------------------------------------
   0 Au:    0.036756    0.009585
   1 Au:    0.013930    0.014996
   2 Au:   -0.067808    0.012640
   3 Au:   -0.034995    0.015631
   4 Au:    0.099273    0.005589
   5 Au:   -0.074317    0.016778
   6 Au:   -0.046054    0.011685
   7 Au:    0.042098    0.014257
   8 Au:   -0.040966    0.016149
   9 Au:    0.047420    0.006366
  10 Mn:    0.024664    3.876324

  Mayer bond orders larger than 0.100000
B(  0-Au,  2-Au) :   0.3628 B(  0-Au,  6-Au) :   0.2765 B(  0-Au,  7-Au) :   0.1348
B(  0-Au,  8-Au) :   0.2095 B(  0-Au, 10-Mn) :   0.2988 B(  1-Au,  3-Au) :   0.4314
B(  1-Au,  6-Au) :   0.2189 B(  1-Au,  9-Au) :   0.2995 B(  1-Au, 10-Mn) :   0.5501
B(  2-Au,  3-Au) :   0.2130 B(  2-Au,  4-Au) :   0.3572 B(  2-Au,  5-Au) :   0.1859
B(  2-Au,  6-Au) :   0.3826 B(  2-Au, 10-Mn) :   0.3100 B(  3-Au,  4-Au) :   0.2973
B(  3-Au, 10-Mn) :   0.5483 B(  4-Au,  5-Au) :   0.2666 B(  5-Au,  7-Au) :   0.4495
B(  5-Au, 10-Mn) :   0.5357 B(  6-Au,  9-Au) :   0.3492 B(  6-Au, 10-Mn) :   0.3073
B(  7-Au,  8-Au) :   0.2553 B(  7-Au, 10-Mn) :   0.5178 B(  8-Au,  9-Au) :   0.2155
B(  8-Au, 10-Mn) :   0.4957 B(  9-Au, 10-Mn) :   0.1484

FINAL SINGLE POINT ENERGY     -2497.911654052723

DIPOLE MOMENT
-------------
                                X             Y             Z
Electronic contribution:     27.78604       6.78484      -5.86254
Nuclear contribution   :    -27.56728      -6.72213       5.77733
                        -----------------------------------------
Total Dipole Moment    :      0.21875       0.06270      -0.08521
                        -----------------------------------------
Magnitude (a.u.)       :      0.24299
Magnitude (Debye)      :      0.61763

Rotational constants in cm-1:     0.002264     0.001572     0.001200
Rotational constants in MHz :    67.866112    47.141230    35.965628

                             ****ORCA TERMINATED NORMALLY****
TOTAL RUN TIME: 0 days 0 hours 2 minutes 49 seconds 836 msec
