                         Program Version 5.0.3 -  RELEASE  -
|  1> !SC-NEVPT2 def2-TZVP def2-TZVP/C
|  2> !MOREAD RIJCOSX def2/J
|  3> %maxcore 4000
|  4> %moinp "casscf.gbw"
|  5> %pal nprocs 8 end
|  6>
|  7> %casscf
|  8>  mult 5,3
|  9>  bweight 1,1
| 10>  nroots 5,45
| 11>  nel 6
| 12>  norb 5
| 13>  ptsettings
| 14>   d4tpre 1e-14 # default = 1e-10
| 15>   d3tpre 1e-14
| 16>  end
| 17>  rel
| 18>    dosoc true
| 19>    gtensor true
| 20>  end
| 21> end
| 22>
| 23>
| 24> *xyzfile 0 5 pbe.xyz
| 25>
| 26>
| 27>                          ****END OF INPUT****

CARTESIAN COORDINATES (ANGSTROEM)
---------------------------------
  Au     7.292753   11.951582    7.623145
  Au     9.142651   10.603493    5.693257
  Au     6.235055    6.889340    6.235037
  Au     8.792937    5.593985    7.577206
  Au     6.676576    9.520209    6.474811
  Au     9.187983    7.910657    6.267125
  Au     8.100475    5.927086   10.348799
  Au     8.760288    8.610978   10.645654
  Au     5.772224    7.669340   10.472867
  Au     9.143096    9.981058    8.383829
  Au     6.292013   10.058561    9.352647
  Au     6.049246    5.479205    8.605275
  Cr     7.502774    7.774206    8.431196

 Total Charge           Charge          ....    0
 Multiplicity           Mult            ....    5
 Number of Electrons    NEL             ....  252
 Basis Dimension        Dim             ....  525

ORBITAL ENERGIES
----------------

  NO   OCC          E(Eh)            E(eV)
   0   2.0000    -220.566092     -6001.9085
   1   2.0000     -26.417598      -718.8594
   2   2.0000     -22.348855      -608.1433
   3   2.0000     -22.347069      -608.0947
   4   2.0000     -22.341918      -607.9545
   5   2.0000      -4.716087      -128.3313
   6   2.0000      -4.715320      -128.3104
   7   2.0000      -4.711053      -128.1943
   8   2.0000      -4.710737      -128.1857
   9   2.0000      -4.706646      -128.0744
  10   2.0000      -4.706386      -128.0673
  11   2.0000      -4.705088      -128.0319
  12   2.0000      -4.704937      -128.0279
  13   2.0000      -4.701328      -127.9296
  14   2.0000      -4.700926      -127.9187
  15   2.0000      -4.699475      -127.8792
  16   2.0000      -4.699415      -127.8776
  17   2.0000      -3.460855       -94.1747
  18   2.0000      -2.756210       -75.0003
  19   2.0000      -2.755538       -74.9820
  20   2.0000      -2.753424       -74.9245
  21   2.0000      -2.752423       -74.8973
  22   2.0000      -2.751859       -74.8819
  23   2.0000      -2.750673       -74.8496
  24   2.0000      -2.749888       -74.8283
  25   2.0000      -2.749098       -74.8068
  26   2.0000      -2.748984       -74.8037
  27   2.0000      -2.747021       -74.7502
  28   2.0000      -2.746795       -74.7441
  29   2.0000      -2.746353       -74.7321
  30   2.0000      -2.745089       -74.6977
  31   2.0000      -2.744431       -74.6798
  32   2.0000      -2.743621       -74.6577
  33   2.0000      -2.743250       -74.6476
  34   2.0000      -2.742939       -74.6392
  35   2.0000      -2.742823       -74.6360
  36   2.0000      -2.739922       -74.5571
  37   2.0000      -2.739815       -74.5542
  38   2.0000      -2.739604       -74.5484
  39   2.0000      -2.739452       -74.5443
  40   2.0000      -2.738644       -74.5223
  41   2.0000      -2.738349       -74.5143
  42   2.0000      -2.737610       -74.4942
  43   2.0000      -2.737478       -74.4906
  44   2.0000      -2.736416       -74.4617
  45   2.0000      -2.736280       -74.4580
  46   2.0000      -2.735591       -74.4392
  47   2.0000      -2.734678       -74.4144
  48   2.0000      -2.733839       -74.3915
  49   2.0000      -2.733764       -74.3895
  50   2.0000      -2.733549       -74.3836
  51   2.0000      -2.733439       -74.3807
  52   2.0000      -2.733319       -74.3774
  53   2.0000      -2.732423       -74.3530
  54   2.0000      -2.218855       -60.3781
  55   2.0000      -2.217357       -60.3373
  56   2.0000      -2.214652       -60.2638
  57   2.0000      -0.557722       -15.1764
  58   2.0000      -0.553354       -15.0575
  59   2.0000      -0.548848       -14.9349
  60   2.0000      -0.545692       -14.8490
  61   2.0000      -0.541738       -14.7414
  62   2.0000      -0.539644       -14.6845
  63   2.0000      -0.536680       -14.6038
  64   2.0000      -0.534137       -14.5346
  65   2.0000      -0.529879       -14.4188
  66   2.0000      -0.528802       -14.3894
  67   2.0000      -0.524717       -14.2783
  68   2.0000      -0.524187       -14.2638
  69   2.0000      -0.522949       -14.2302
  70   2.0000      -0.522063       -14.2061
  71   2.0000      -0.517275       -14.0758
  72   2.0000      -0.514812       -14.0087
  73   2.0000      -0.511982       -13.9317
  74   2.0000      -0.508347       -13.8328
  75   2.0000      -0.506379       -13.7793
  76   2.0000      -0.504565       -13.7299
  77   2.0000      -0.498378       -13.5615
  78   2.0000      -0.495853       -13.4928
  79   2.0000      -0.495480       -13.4827
  80   2.0000      -0.491260       -13.3679
  81   2.0000      -0.490383       -13.3440
  82   2.0000      -0.483253       -13.1500
  83   2.0000      -0.480540       -13.0761
  84   2.0000      -0.476999       -12.9798
  85   2.0000      -0.470602       -12.8057
  86   2.0000      -0.467326       -12.7166
  87   2.0000      -0.462347       -12.5811
  88   2.0000      -0.461650       -12.5621
  89   2.0000      -0.459905       -12.5146
  90   2.0000      -0.459219       -12.4960
  91   2.0000      -0.458620       -12.4797
  92   2.0000      -0.458103       -12.4656
  93   2.0000      -0.454172       -12.3586
  94   2.0000      -0.451949       -12.2981
  95   2.0000      -0.450873       -12.2689
  96   2.0000      -0.448092       -12.1932
  97   2.0000      -0.447209       -12.1692
  98   2.0000      -0.447105       -12.1664
  99   2.0000      -0.442903       -12.0520
 100   2.0000      -0.442043       -12.0286
 101   2.0000      -0.441606       -12.0167
 102   2.0000      -0.437781       -11.9126
 103   2.0000      -0.436852       -11.8874
 104   2.0000      -0.435179       -11.8418
 105   2.0000      -0.432862       -11.7788
 106   2.0000      -0.432183       -11.7603
 107   2.0000      -0.427767       -11.6401
 108   2.0000      -0.426419       -11.6034
 109   2.0000      -0.424396       -11.5484
 110   2.0000      -0.421769       -11.4769
 111   2.0000      -0.420493       -11.4422
 112   2.0000      -0.417559       -11.3624
 113   2.0000      -0.412737       -11.2311
 114   2.0000      -0.406117       -11.0510
 115   2.0000      -0.403313       -10.9747
 116   2.0000      -0.399036       -10.8583
 117   2.0000      -0.393975       -10.7206
 118   2.0000      -0.371805       -10.1173
 119   2.0000      -0.332657        -9.0521
 120   2.0000      -0.274803        -7.4778
 121   2.0000      -0.247295        -6.7292
 122   2.0000      -0.230438        -6.2705
 123   1.2000      -0.145174        -3.9504
 124   1.2000      -0.156078        -4.2471
 125   1.2000      -0.143828        -3.9138
 126   1.2000      -0.128713        -3.5024
 127   1.2000      -0.142464        -3.8766
 128   0.0000      -0.014692        -0.3998
 129   0.0000       0.006437         0.1751
 130   0.0000       0.011980         0.3260
 131   0.0000       0.020214         0.5501
 132   0.0000       0.026239         0.7140

MULLIKEN ATOMIC CHARGES AND SPIN DENSITIES
------------------------------------------
   0 Au:    0.326085    0.010342
   1 Au:    0.323025    0.010351
   2 Au:    0.471323    0.051529
   3 Au:    0.429852    0.048007
   4 Au:    0.124863    0.033901
   5 Au:    0.222723    0.042700
   6 Au:    0.541384    0.030926
   7 Au:    0.468259    0.051009
   8 Au:    0.433748    0.046172
   9 Au:    0.123519    0.035682
  10 Au:    0.218519    0.043760
  11 Au:    0.533193    0.033684
  12 Cr:   -4.216492    2.561938
Sum of atomic charges       :    0.0000000

LOEWDIN ATOMIC CHARGES AND SPIN DENSITIES
-----------------------------------------
   0 Au:    0.117727    0.016490
   1 Au:    0.118037    0.016384
   2 Au:    0.154465    0.077854
   3 Au:    0.108802    0.075950
   4 Au:   -0.030727    0.049982
   5 Au:    0.036595    0.068112
   6 Au:    0.099352    0.056750
   7 Au:    0.152580    0.077249
   8 Au:    0.108509    0.075092
   9 Au:   -0.030182    0.051291
  10 Au:    0.037637    0.068082
  11 Au:    0.098767    0.059316
  12 Cr:   -0.971562    2.307449

  Mayer bond orders larger than 0.100000
B(  0-Au,  4-Au) :   0.2923 B(  0-Au,  9-Au) :   0.1583 B(  0-Au, 10-Au) :   0.2783
B(  0-Au, 12-Cr) :   0.3745 B(  1-Au,  4-Au) :   0.1616 B(  1-Au,  5-Au) :   0.2807
B(  1-Au,  9-Au) :   0.2893 B(  1-Au, 12-Cr) :   0.3740 B(  2-Au,  4-Au) :   0.2984
B(  2-Au,  7-Au) :   0.1350 B(  2-Au, 11-Au) :   0.1522 B(  2-Au, 12-Cr) :   0.4318
B(  3-Au,  5-Au) :   0.3079 B(  3-Au,  6-Au) :   0.1600 B(  3-Au, 10-Au) :   0.1353
B(  3-Au, 12-Cr) :   0.4507 B(  4-Au,  6-Au) :   0.1270 B(  4-Au,  9-Au) :   0.1140
B(  4-Au, 10-Au) :   0.1895 B(  4-Au, 12-Cr) :   0.4468 B(  5-Au,  8-Au) :   0.1362
B(  5-Au,  9-Au) :   0.1856 B(  5-Au, 12-Cr) :   0.5320 B(  6-Au,  7-Au) :   0.1455
B(  6-Au, 11-Au) :   0.1402 B(  6-Au, 12-Cr) :   0.3120 B(  7-Au,  9-Au) :   0.3054
B(  7-Au, 12-Cr) :   0.4339 B(  8-Au, 10-Au) :   0.3085 B(  8-Au, 11-Au) :   0.1572
B(  8-Au, 12-Cr) :   0.4463 B(  9-Au, 11-Au) :   0.1282 B(  9-Au, 12-Cr) :   0.4493
B( 10-Au, 12-Cr) :   0.5368 B( 11-Au, 12-Cr) :   0.3203

FINAL SINGLE POINT ENERGY     -2667.106185953618

DIPOLE MOMENT
-------------
                                X             Y             Z
Electronic contribution:      4.08697      19.99040     -10.11832
Nuclear contribution   :     -4.13038     -20.19841      10.22261
                        -----------------------------------------
Total Dipole Moment    :     -0.04341      -0.20801       0.10429
                        -----------------------------------------
Magnitude (a.u.)       :      0.23670
Magnitude (Debye)      :      0.60165

Rotational constants in cm-1:     0.001721     0.001155     0.000992
Rotational constants in MHz :    51.581608    34.640620    29.725386

                             ****ORCA TERMINATED NORMALLY****
TOTAL RUN TIME: 0 days 0 hours 45 minutes 37 seconds 626 msec
