                         Program Version 5.0.3 -  RELEASE  -
|  1> !CASSCF def2-TZVP def2-TZVP/C
|  2> !MOREAD RIJCOSX
|  3> %maxcore 6000
|  4> %moinp "pbe.qro"
|  5> %pal nprocs 2 end
|  6>
|  7> %casscf
|  8>  mult 5,3
|  9>  bweight 1,1
| 10>  nroots 5,45
| 11>  nel 6
| 12>  norb 5
| 13> end
| 14>
| 15>
| 16> *xyzfile 0 5 pbe.xyz
| 17>
| 18>
| 19>                          ****END OF INPUT****

CARTESIAN COORDINATES (ANGSTROEM)
---------------------------------
  Au    10.788500    4.506201    5.448827
  Au     7.192219    7.399365    6.254779
  Au     8.139969    5.119141    5.066326
  Au     8.753750    3.962804    7.525500
  Au     9.047262    8.799559    7.693733
  Au     7.775593    6.306510    8.752401
  Au    10.179692    5.198206    9.504697
  Au    12.781900    5.980777   10.054816
  Au    11.174281    7.831432    8.871463
  Au    12.245121    5.254140    7.489687
  Fe     9.750651    6.371215    6.988769

 Total Charge           Charge          ....    0
 Multiplicity           Mult            ....    5
 Number of Electrons    NEL             ....  216
 Basis Dimension        Dim             ....  445

ORBITAL ENERGIES
----------------

  NO   OCC          E(Eh)            E(eV)
   0   2.0000    -261.398933     -7113.0266
   1   2.0000     -31.961690      -869.7218
   2   2.0000     -27.442292      -746.7427
   3   2.0000     -27.441374      -746.7177
   4   2.0000     -27.441088      -746.7100
   5   2.0000      -4.725250      -128.5806
   6   2.0000      -4.725034      -128.5747
   7   2.0000      -4.724492      -128.5600
   8   2.0000      -4.714135      -128.2781
   9   2.0000      -4.713849      -128.2703
  10   2.0000      -4.704974      -128.0289
  11   2.0000      -4.703025      -127.9758
  12   2.0000      -4.702845      -127.9709
  13   2.0000      -4.701328      -127.9296
  14   2.0000      -4.700780      -127.9147
  15   2.0000      -4.194511      -114.1384
  16   2.0000      -2.774802       -75.5062
  17   2.0000      -2.773672       -75.4754
  18   2.0000      -2.772199       -75.4354
  19   2.0000      -2.767147       -75.2979
  20   2.0000      -2.763877       -75.2089
  21   2.0000      -2.763458       -75.1975
  22   2.0000      -2.762096       -75.1604
  23   2.0000      -2.761329       -75.1396
  24   2.0000      -2.760643       -75.1209
  25   2.0000      -2.758340       -75.0582
  26   2.0000      -2.758022       -75.0496
  27   2.0000      -2.757270       -75.0291
  28   2.0000      -2.753868       -74.9366
  29   2.0000      -2.752960       -74.9118
  30   2.0000      -2.750897       -74.8557
  31   2.0000      -2.750390       -74.8419
  32   2.0000      -2.746491       -74.7358
  33   2.0000      -2.746359       -74.7322
  34   2.0000      -2.744357       -74.6777
  35   2.0000      -2.741074       -74.5884
  36   2.0000      -2.739090       -74.5344
  37   2.0000      -2.738777       -74.5259
  38   2.0000      -2.738577       -74.5205
  39   2.0000      -2.738212       -74.5105
  40   2.0000      -2.737466       -74.4902
  41   2.0000      -2.736983       -74.4771
  42   2.0000      -2.735101       -74.4259
  43   2.0000      -2.734969       -74.4223
  44   2.0000      -2.734496       -74.4094
  45   2.0000      -2.734026       -74.3966
  46   2.0000      -2.733770       -74.3897
  47   2.0000      -2.733274       -74.3762
  48   2.0000      -2.731845       -74.3373
  49   2.0000      -0.579262       -15.7625
  50   2.0000      -0.565573       -15.3900
  51   2.0000      -0.557501       -15.1704
  52   2.0000      -0.546693       -14.8763
  53   2.0000      -0.544253       -14.8099
  54   2.0000      -0.541240       -14.7279
  55   2.0000      -0.540171       -14.6988
  56   2.0000      -0.536843       -14.6082
  57   2.0000      -0.534522       -14.5451
  58   2.0000      -0.530284       -14.4298
  59   2.0000      -0.528467       -14.3803
  60   2.0000      -0.522826       -14.2268
  61   2.0000      -0.517184       -14.0733
  62   2.0000      -0.510897       -13.9022
  63   2.0000      -0.510438       -13.8897
  64   2.0000      -0.508634       -13.8406
  65   2.0000      -0.506898       -13.7934
  66   2.0000      -0.503085       -13.6896
  67   2.0000      -0.501803       -13.6548
  68   2.0000      -0.495355       -13.4793
  69   2.0000      -0.494603       -13.4588
  70   2.0000      -0.489707       -13.3256
  71   2.0000      -0.482548       -13.1308
  72   2.0000      -0.480697       -13.0804
  73   2.0000      -0.474246       -12.9049
  74   2.0000      -0.473635       -12.8883
  75   2.0000      -0.470715       -12.8088
  76   2.0000      -0.469525       -12.7764
  77   2.0000      -0.466358       -12.6902
  78   2.0000      -0.463765       -12.6197
  79   2.0000      -0.459765       -12.5108
  80   2.0000      -0.456886       -12.4325
  81   2.0000      -0.456360       -12.4182
  82   2.0000      -0.450539       -12.2598
  83   2.0000      -0.447165       -12.1680
  84   2.0000      -0.446716       -12.1558
  85   2.0000      -0.444617       -12.0986
  86   2.0000      -0.442506       -12.0412
  87   2.0000      -0.440982       -11.9997
  88   2.0000      -0.436456       -11.8766
  89   2.0000      -0.435846       -11.8600
  90   2.0000      -0.435386       -11.8475
  91   2.0000      -0.430845       -11.7239
  92   2.0000      -0.427086       -11.6216
  93   2.0000      -0.424680       -11.5561
  94   2.0000      -0.419564       -11.4169
  95   2.0000      -0.417999       -11.3743
  96   2.0000      -0.412863       -11.2346
  97   2.0000      -0.405503       -11.0343
  98   2.0000      -0.402179       -10.9438
  99   2.0000      -0.388653       -10.5758
 100   2.0000      -0.358995        -9.7687
 101   2.0000      -0.333508        -9.0752
 102   2.0000      -0.288123        -7.8402
 103   2.0000      -0.245944        -6.6925
 104   2.0000      -0.223212        -6.0739
 105   1.2000      -0.261927        -7.1274
 106   1.2000      -0.272269        -7.4088
 107   1.2000      -0.277809        -7.5596
 108   1.2000      -0.276292        -7.5183
 109   1.2000      -0.275736        -7.5032
 110   0.0000      -0.019294        -0.5250
 111   0.0000      -0.016353        -0.4450
 112   0.0000      -0.010405        -0.2831
 113   0.0000       0.007794         0.2121
 114   0.0000       0.021558         0.5866

MULLIKEN ATOMIC CHARGES AND SPIN DENSITIES
------------------------------------------
   0 Au:    0.271033    0.008119
   1 Au:    0.073167    0.007251
   2 Au:    0.060337    0.007918
   3 Au:    0.231038    0.007064
   4 Au:    0.267899    0.008262
   5 Au:    0.221760    0.007366
   6 Au:   -0.174371    0.005664
   7 Au:    0.398968    0.002599
   8 Au:   -0.178418    0.009441
   9 Au:   -0.168880    0.009468
  10 Fe:   -1.002534    2.926848
Sum of atomic charges       :    0.0000000

LOEWDIN ATOMIC CHARGES AND SPIN DENSITIES
-----------------------------------------
   0 Au:    0.040067    0.011499
   1 Au:   -0.003312    0.009270
   2 Au:   -0.009660    0.009995
   3 Au:    0.033961    0.009476
   4 Au:    0.039986    0.011635
   5 Au:    0.033098    0.009873
   6 Au:   -0.066059    0.007908
   7 Au:    0.142727    0.004038
   8 Au:   -0.101417    0.011345
   9 Au:   -0.101505    0.011379
  10 Fe:   -0.007885    2.903582

  Mayer bond orders larger than 0.100000
B(  0-Au,  2-Au) :   0.2200 B(  0-Au,  3-Au) :   0.1058 B(  0-Au,  9-Au) :   0.5120
B(  0-Au, 10-Fe) :   0.5106 B(  1-Au,  2-Au) :   0.1722 B(  1-Au,  4-Au) :   0.2263
B(  1-Au,  5-Au) :   0.2786 B(  1-Au, 10-Fe) :   0.3905 B(  2-Au,  3-Au) :   0.2716
B(  2-Au, 10-Fe) :   0.4104 B(  3-Au,  5-Au) :   0.2186 B(  3-Au,  6-Au) :   0.3681
B(  3-Au, 10-Fe) :   0.3522 B(  4-Au,  5-Au) :   0.1019 B(  4-Au,  8-Au) :   0.5130
B(  4-Au, 10-Fe) :   0.5139 B(  5-Au,  6-Au) :   0.3697 B(  5-Au, 10-Fe) :   0.3559
B(  6-Au,  7-Au) :   0.3172 B(  6-Au,  8-Au) :   0.2346 B(  6-Au,  9-Au) :   0.2330
B(  6-Au, 10-Fe) :   0.2697 B(  7-Au,  8-Au) :   0.3165 B(  7-Au,  9-Au) :   0.3109
B(  8-Au,  9-Au) :   0.1372 B(  8-Au, 10-Fe) :   0.4900 B(  9-Au, 10-Fe) :   0.4822

FINAL SINGLE POINT ENERGY     -2610.489713123647

DIPOLE MOMENT
-------------
                                X             Y             Z
Electronic contribution:      1.93321     -12.99885      26.04010
Nuclear contribution   :     -2.16580      12.70435     -25.66062
                        -----------------------------------------
Total Dipole Moment    :     -0.23259      -0.29450       0.37948
                        -----------------------------------------
Magnitude (a.u.)       :      0.53370
Magnitude (Debye)      :      1.35656

Rotational constants in cm-1:     0.002273     0.001569     0.001248
Rotational constants in MHz :    68.143328    47.038427    37.424704

                             ****ORCA TERMINATED NORMALLY****
TOTAL RUN TIME: 0 days 0 hours 32 minutes 9 seconds 557 msec
