                         Program Version 5.0.3 -  RELEASE  -
|  1> !RI-B2PLYP def2-TZVP def2-TZVP/C
|  2> !RIJCOSX VERYSLOWCONV
|  3>
|  4> %scf
|  5>   AutoTRAHIter 200
|  6>   maxiter 400
|  7> end
|  8>
|  9>
| 10> %pal nprocs 6 end
| 11>
| 12> *xyzfile 0 5 pbe.xyz
| 13>
| 14> $new_job
| 15>
| 16> !RI-B2PLYP def2-TZVP def2-TZVP/C
| 17> !RIJCOSX VERYSLOWCONV
| 18>
| 19> %scf
| 20>   AutoTRAHIter 200
| 21>   maxiter 400
| 22> end
| 23>
| 24>
| 25> %pal nprocs 6 end
| 26>
| 27> *xyzfile 0 3 pbe.xyz
| 28>
| 29>
| 30>
| 31>
| 32>
| 33>                          ****END OF INPUT****
 Total Charge           Charge          ....    0
 Multiplicity           Mult            ....    5
 Number of Electrons    NEL             ....  330
MP2 TOTAL ENERGY:    -3432.974752829 Eh
FINAL SINGLE POINT ENERGY     -3432.974752828541

CARTESIAN COORDINATES (ANGSTROEM)
---------------------------------
  Au     8.529058    6.915375    9.671709
  Au     8.465609    5.098995    7.410940
  Au     7.916520    6.529139    5.045373
  Au     7.635500    9.873369    6.091442
  Au     9.694720    8.628198    4.565777
  Au     9.738556    7.513219    7.137666
  Au    10.321804   10.203529    6.823403
  Au     8.351454    9.563151    8.754315
  Au     6.087105    8.350551    9.837938
  Au     4.326100    7.087755    8.006004
  Au     5.272994    9.688841    7.532837
  Au     5.208635   10.411787    4.795093
  Au     7.095101    8.727271    3.536736
  Au     5.789799    5.210814    6.346584
  Au     5.220906    7.697898    5.346475
  Au     6.228730    5.367573    9.169870
  Fe     6.978626    7.408132    7.488571

 Multiplicity           Mult            ....    3
 Number of Electrons    NEL             ....  330
 Basis Dimension        Dim             ....  685

ORBITAL ENERGIES
----------------
                 SPIN UP ORBITALS
  NO   OCC          E(Eh)            E(eV)
   0   1.0000    -258.340260     -7029.7959
   1   1.0000     -30.899724      -840.8242
   2   1.0000     -26.617058      -724.2870
   3   1.0000     -26.588855      -723.5195
   4   1.0000     -26.588117      -723.4995
   5   1.0000      -4.409047      -119.9763
   6   1.0000      -4.407882      -119.9446
   7   1.0000      -4.406596      -119.9096
   8   1.0000      -4.406467      -119.9061
   9   1.0000      -4.403861      -119.8352
  10   1.0000      -4.403759      -119.8324
  11   1.0000      -4.403627      -119.8288
  12   1.0000      -4.403287      -119.8195
  13   1.0000      -4.403243      -119.8183
  14   1.0000      -4.399504      -119.7166
  15   1.0000      -4.399465      -119.7155
  16   1.0000      -4.397476      -119.6614
  17   1.0000      -4.394924      -119.5920
  18   1.0000      -4.394752      -119.5873
  19   1.0000      -4.389461      -119.4433
  20   1.0000      -4.389437      -119.4427
  21   1.0000      -3.912221      -106.4570
  22   1.0000      -2.661116       -72.4126
  23   1.0000      -2.601582       -70.7926
  24   1.0000      -2.600547       -70.7645
  25   1.0000      -2.529800       -68.8394
  26   1.0000      -2.528339       -68.7996
  27   1.0000      -2.528026       -68.7911
  28   1.0000      -2.527115       -68.7663
  29   1.0000      -2.526889       -68.7601
  30   1.0000      -2.525717       -68.7283
  31   1.0000      -2.525567       -68.7242
  32   1.0000      -2.524731       -68.7014
  33   1.0000      -2.523970       -68.6807
  34   1.0000      -2.523644       -68.6718
  35   1.0000      -2.523273       -68.6617
  36   1.0000      -2.522929       -68.6524
  37   1.0000      -2.522897       -68.6515
  38   1.0000      -2.522379       -68.6374
  39   1.0000      -2.522339       -68.6363
  40   1.0000      -2.522245       -68.6338
  41   1.0000      -2.522168       -68.6317
  42   1.0000      -2.521401       -68.6108
  43   1.0000      -2.521304       -68.6082
  44   1.0000      -2.520643       -68.5902
  45   1.0000      -2.520450       -68.5849
  46   1.0000      -2.520074       -68.5747
  47   1.0000      -2.519384       -68.5559
  48   1.0000      -2.519068       -68.5473
  49   1.0000      -2.518398       -68.5291
  50   1.0000      -2.518372       -68.5284
  51   1.0000      -2.517437       -68.5029
  52   1.0000      -2.516995       -68.4909
  53   1.0000      -2.516593       -68.4800
  54   1.0000      -2.516069       -68.4657
  55   1.0000      -2.515812       -68.4587
  56   1.0000      -2.515601       -68.4530
  57   1.0000      -2.515080       -68.4388
  58   1.0000      -2.514190       -68.4146
  59   1.0000      -2.514032       -68.4103
  60   1.0000      -2.513360       -68.3920
  61   1.0000      -2.512531       -68.3694
  62   1.0000      -2.512225       -68.3611
  63   1.0000      -2.512050       -68.3564
  64   1.0000      -2.511966       -68.3541
  65   1.0000      -2.511330       -68.3368
  66   1.0000      -2.510005       -68.3007
  67   1.0000      -2.507353       -68.2285
  68   1.0000      -2.507165       -68.2234
  69   1.0000      -2.505913       -68.1894
  70   1.0000      -2.505849       -68.1876
  71   1.0000      -2.504883       -68.1613
  72   1.0000      -2.504690       -68.1561
  73   1.0000      -0.562558       -15.3080
  74   1.0000      -0.559891       -15.2354
  75   1.0000      -0.556064       -15.1313
  76   1.0000      -0.537164       -14.6170
  77   1.0000      -0.523956       -14.2576
  78   1.0000      -0.509529       -13.8650
  79   1.0000      -0.488408       -13.2903
  80   1.0000      -0.477855       -13.0031
  81   1.0000      -0.476593       -12.9688
  82   1.0000      -0.473521       -12.8852
  83   1.0000      -0.472005       -12.8439
  84   1.0000      -0.465585       -12.6692
  85   1.0000      -0.464598       -12.6424
  86   1.0000      -0.463162       -12.6033
  87   1.0000      -0.463121       -12.6022
  88   1.0000      -0.459685       -12.5087
  89   1.0000      -0.457712       -12.4550
  90   1.0000      -0.457129       -12.4391
  91   1.0000      -0.454934       -12.3794
  92   1.0000      -0.452395       -12.3103
  93   1.0000      -0.452246       -12.3062
  94   1.0000      -0.450299       -12.2533
  95   1.0000      -0.449805       -12.2398
  96   1.0000      -0.447297       -12.1716
  97   1.0000      -0.445661       -12.1271
  98   1.0000      -0.445130       -12.1126
  99   1.0000      -0.442293       -12.0354
 100   1.0000      -0.440252       -11.9799
 101   1.0000      -0.439162       -11.9502
 102   1.0000      -0.436599       -11.8805
 103   1.0000      -0.434079       -11.8119
 104   1.0000      -0.431700       -11.7472
 105   1.0000      -0.428955       -11.6725
 106   1.0000      -0.426768       -11.6129
 107   1.0000      -0.423410       -11.5216
 108   1.0000      -0.420873       -11.4525
 109   1.0000      -0.419044       -11.4028
 110   1.0000      -0.415438       -11.3046
 111   1.0000      -0.413702       -11.2574
 112   1.0000      -0.409362       -11.1393
 113   1.0000      -0.407033       -11.0759
 114   1.0000      -0.405935       -11.0460
 115   1.0000      -0.402061       -10.9406
 116   1.0000      -0.397916       -10.8279
 117   1.0000      -0.396799       -10.7974
 118   1.0000      -0.390184       -10.6174
 119   1.0000      -0.388141       -10.5618
 120   1.0000      -0.386797       -10.5253
 121   1.0000      -0.384123       -10.4525
 122   1.0000      -0.382709       -10.4140
 123   1.0000      -0.381795       -10.3892
 124   1.0000      -0.378281       -10.2936
 125   1.0000      -0.378214       -10.2917
 126   1.0000      -0.376443       -10.2435
 127   1.0000      -0.374463       -10.1897
 128   1.0000      -0.373703       -10.1690
 129   1.0000      -0.373212       -10.1556
 130   1.0000      -0.371147       -10.0994
 131   1.0000      -0.370871       -10.0919
 132   1.0000      -0.369785       -10.0624
 133   1.0000      -0.369259       -10.0480
 134   1.0000      -0.369138       -10.0448
 135   1.0000      -0.368305       -10.0221
 136   1.0000      -0.366780        -9.9806
 137   1.0000      -0.364694        -9.9238
 138   1.0000      -0.364286        -9.9127
 139   1.0000      -0.362491        -9.8639
 140   1.0000      -0.361776        -9.8444
 141   1.0000      -0.360756        -9.8167
 142   1.0000      -0.358985        -9.7685
 143   1.0000      -0.358352        -9.7513
 144   1.0000      -0.356476        -9.7002
 145   1.0000      -0.354173        -9.6375
 146   1.0000      -0.350095        -9.5266
 147   1.0000      -0.349935        -9.5222
 148   1.0000      -0.348892        -9.4938
 149   1.0000      -0.345022        -9.3885
 150   1.0000      -0.344903        -9.3853
 151   1.0000      -0.341118        -9.2823
 152   1.0000      -0.339828        -9.2472
 153   1.0000      -0.337974        -9.1967
 154   1.0000      -0.337529        -9.1846
 155   1.0000      -0.334859        -9.1120
 156   1.0000      -0.332073        -9.0362
 157   1.0000      -0.327046        -8.8994
 158   1.0000      -0.326392        -8.8816
 159   1.0000      -0.323548        -8.8042
 160   1.0000      -0.316748        -8.6191
 161   1.0000      -0.311714        -8.4822
 162   1.0000      -0.259940        -7.0733
 163   1.0000      -0.240338        -6.5399
 164   1.0000      -0.229128        -6.2349
 165   1.0000      -0.216157        -5.8819
 166   0.0000      -0.126243        -3.4353
 167   0.0000      -0.093406        -2.5417
 168   0.0000      -0.079144        -2.1536
 169   0.0000      -0.076746        -2.0884
 170   0.0000      -0.074076        -2.0157

                 SPIN DOWN ORBITALS
  NO   OCC          E(Eh)            E(eV)
   0   1.0000    -258.338446     -7029.7465
   1   1.0000     -30.807231      -838.3074
   2   1.0000     -26.518314      -721.6000
   3   1.0000     -26.511186      -721.4060
   4   1.0000     -26.510990      -721.4007
   5   1.0000      -4.409505      -119.9887
   6   1.0000      -4.408726      -119.9675
   7   1.0000      -4.407477      -119.9336
   8   1.0000      -4.407332      -119.9296
   9   1.0000      -4.403810      -119.8338
  10   1.0000      -4.403738      -119.8318
  11   1.0000      -4.403709      -119.8310
  12   1.0000      -4.403631      -119.8289
  13   1.0000      -4.403560      -119.8270
  14   1.0000      -4.400531      -119.7445
  15   1.0000      -4.400498      -119.7436
  16   1.0000      -4.397831      -119.6711
  17   1.0000      -4.394866      -119.5904
  18   1.0000      -4.394692      -119.5856
  19   1.0000      -4.391641      -119.5026
  20   1.0000      -4.391625      -119.5022
  21   1.0000      -3.668874       -99.8351
  22   1.0000      -2.529678       -68.8360
  23   1.0000      -2.529278       -68.8251
  24   1.0000      -2.528655       -68.8082
  25   1.0000      -2.528197       -68.7957
  26   1.0000      -2.527550       -68.7781
  27   1.0000      -2.525745       -68.7290
  28   1.0000      -2.524984       -68.7083
  29   1.0000      -2.524171       -68.6862
  30   1.0000      -2.523980       -68.6810
  31   1.0000      -2.523627       -68.6714
  32   1.0000      -2.523332       -68.6634
  33   1.0000      -2.523269       -68.6616
  34   1.0000      -2.522911       -68.6519
  35   1.0000      -2.522757       -68.6477
  36   1.0000      -2.522648       -68.6447
  37   1.0000      -2.522489       -68.6404
  38   1.0000      -2.522031       -68.6280
  39   1.0000      -2.521256       -68.6069
  40   1.0000      -2.521155       -68.6041
  41   1.0000      -2.520923       -68.5978
  42   1.0000      -2.520700       -68.5917
  43   1.0000      -2.520199       -68.5781
  44   1.0000      -2.519288       -68.5533
  45   1.0000      -2.518880       -68.5422
  46   1.0000      -2.518578       -68.5340
  47   1.0000      -2.518274       -68.5257
  48   1.0000      -2.517856       -68.5143
  49   1.0000      -2.517712       -68.5104
  50   1.0000      -2.517485       -68.5042
  51   1.0000      -2.516922       -68.4889
  52   1.0000      -2.516588       -68.4798
  53   1.0000      -2.515434       -68.4484
  54   1.0000      -2.515210       -68.4423
  55   1.0000      -2.515158       -68.4409
  56   1.0000      -2.515142       -68.4405
  57   1.0000      -2.513887       -68.4063
  58   1.0000      -2.513148       -68.3862
  59   1.0000      -2.512791       -68.3765
  60   1.0000      -2.512472       -68.3678
  61   1.0000      -2.511925       -68.3530
  62   1.0000      -2.511355       -68.3375
  63   1.0000      -2.510092       -68.3031
  64   1.0000      -2.510066       -68.3024
  65   1.0000      -2.509944       -68.2990
  66   1.0000      -2.507598       -68.2352
  67   1.0000      -2.507485       -68.2321
  68   1.0000      -2.506618       -68.2085
  69   1.0000      -2.506536       -68.2063
  70   1.0000      -2.347349       -63.8746
  71   1.0000      -2.346861       -63.8613
  72   1.0000      -2.334917       -63.5363
  73   1.0000      -0.526419       -14.3246
  74   1.0000      -0.495848       -13.4927
  75   1.0000      -0.482664       -13.1339
  76   1.0000      -0.478635       -13.0243
  77   1.0000      -0.477659       -12.9978
  78   1.0000      -0.477182       -12.9848
  79   1.0000      -0.474060       -12.8998
  80   1.0000      -0.470510       -12.8032
  81   1.0000      -0.470241       -12.7959
  82   1.0000      -0.468900       -12.7594
  83   1.0000      -0.465411       -12.6645
  84   1.0000      -0.464269       -12.6334
  85   1.0000      -0.464106       -12.6290
  86   1.0000      -0.461883       -12.5685
  87   1.0000      -0.460644       -12.5348
  88   1.0000      -0.458424       -12.4744
  89   1.0000      -0.455077       -12.3833
  90   1.0000      -0.455070       -12.3831
  91   1.0000      -0.453622       -12.3437
  92   1.0000      -0.452879       -12.3235
  93   1.0000      -0.450006       -12.2453
  94   1.0000      -0.448696       -12.2096
  95   1.0000      -0.446183       -12.1413
  96   1.0000      -0.442607       -12.0439
  97   1.0000      -0.440911       -11.9978
  98   1.0000      -0.439430       -11.9575
  99   1.0000      -0.437597       -11.9076
 100   1.0000      -0.433426       -11.7941
 101   1.0000      -0.429372       -11.6838
 102   1.0000      -0.426246       -11.5987
 103   1.0000      -0.424133       -11.5412
 104   1.0000      -0.420937       -11.4543
 105   1.0000      -0.419475       -11.4145
 106   1.0000      -0.418658       -11.3923
 107   1.0000      -0.412885       -11.2352
 108   1.0000      -0.411161       -11.1883
 109   1.0000      -0.409214       -11.1353
 110   1.0000      -0.405878       -11.0445
 111   1.0000      -0.401529       -10.9262
 112   1.0000      -0.400614       -10.9013
 113   1.0000      -0.400484       -10.8977
 114   1.0000      -0.391728       -10.6595
 115   1.0000      -0.391476       -10.6526
 116   1.0000      -0.390371       -10.6225
 117   1.0000      -0.387124       -10.5342
 118   1.0000      -0.386524       -10.5178
 119   1.0000      -0.385423       -10.4879
 120   1.0000      -0.382390       -10.4054
 121   1.0000      -0.379861       -10.3365
 122   1.0000      -0.379461       -10.3257
 123   1.0000      -0.375611       -10.2209
 124   1.0000      -0.375172       -10.2090
 125   1.0000      -0.372630       -10.1398
 126   1.0000      -0.372482       -10.1357
 127   1.0000      -0.372046       -10.1239
 128   1.0000      -0.371875       -10.1192
 129   1.0000      -0.371401       -10.1063
 130   1.0000      -0.370456       -10.0806
 131   1.0000      -0.368435       -10.0256
 132   1.0000      -0.367908       -10.0113
 133   1.0000      -0.366870        -9.9830
 134   1.0000      -0.365500        -9.9458
 135   1.0000      -0.364261        -9.9120
 136   1.0000      -0.362730        -9.8704
 137   1.0000      -0.362015        -9.8509
 138   1.0000      -0.361152        -9.8274
 139   1.0000      -0.360431        -9.8078
 140   1.0000      -0.355508        -9.6739
 141   1.0000      -0.352492        -9.5918
 142   1.0000      -0.352064        -9.5802
 143   1.0000      -0.350807        -9.5459
 144   1.0000      -0.348625        -9.4866
 145   1.0000      -0.347985        -9.4692
 146   1.0000      -0.345178        -9.3928
 147   1.0000      -0.343261        -9.3406
 148   1.0000      -0.340093        -9.2544
 149   1.0000      -0.338088        -9.1998
 150   1.0000      -0.337057        -9.1718
 151   1.0000      -0.333593        -9.0775
 152   1.0000      -0.332418        -9.0455
 153   1.0000      -0.332261        -9.0413
 154   1.0000      -0.329579        -8.9683
 155   1.0000      -0.326267        -8.8782
 156   1.0000      -0.321316        -8.7435
 157   1.0000      -0.318541        -8.6680
 158   1.0000      -0.265638        -7.2284
 159   1.0000      -0.247154        -6.7254
 160   1.0000      -0.242494        -6.5986
 161   1.0000      -0.227664        -6.1951
 162   1.0000      -0.221849        -6.0368
 163   1.0000      -0.178493        -4.8571
 164   0.0000      -0.085316        -2.3216
 165   0.0000      -0.082669        -2.2495
 166   0.0000      -0.080213        -2.1827
 167   0.0000      -0.069093        -1.8801
 168   0.0000      -0.058389        -1.5889

MULLIKEN ATOMIC CHARGES AND SPIN POPULATIONS
--------------------------------------------
   0 Au:    0.370578   -0.066543
   1 Au:    0.376962   -0.076480
   2 Au:   -0.225319   -0.048836
   3 Au:   -1.054840    0.008540
   4 Au:    0.371149    0.023587
   5 Au:   -0.210923   -0.151484
   6 Au:    0.449910   -0.310911
   7 Au:    0.130073   -0.032133
   8 Au:    0.323358   -0.149679
   9 Au:    0.369932   -0.067913
  10 Au:    0.130917   -0.030827
  11 Au:    0.449830   -0.312024
  12 Au:    0.371359    0.024374
  13 Au:    0.377628   -0.076873
  14 Au:   -0.210470   -0.149761
  15 Au:    0.175517    0.014854
  16 Fe:   -2.195661    3.402108
Sum of atomic charges         :   -0.0000000

LOEWDIN ATOMIC CHARGES AND SPIN POPULATIONS
-------------------------------------------
   0 Au:    0.074745   -0.070223
   1 Au:    0.065737   -0.108549
   2 Au:   -0.038343   -0.043938
   3 Au:   -0.157005   -0.084801
   4 Au:    0.051580   -0.011909
   5 Au:   -0.069379   -0.124172
   6 Au:    0.103807   -0.207184
   7 Au:    0.005660   -0.113944
   8 Au:    0.032168   -0.103554
   9 Au:    0.075093   -0.070504
  10 Au:    0.005815   -0.113720
  11 Au:    0.103366   -0.207784
  12 Au:    0.050897   -0.011745
  13 Au:    0.066006   -0.108034
  14 Au:   -0.069568   -0.123715
  15 Au:    0.050457   -0.019189
  16 Fe:   -0.351037    3.522965

  Mayer bond orders larger than 0.100000
B(  0-Au,  5-Au) :   0.1675 B(  0-Au,  7-Au) :   0.1986 B(  0-Au,  8-Au) :   0.1325
B(  0-Au, 15-Au) :   0.1780 B(  0-Au, 16-Fe) :   0.3815 B(  1-Au,  2-Au) :   0.2141
B(  1-Au,  5-Au) :   0.3178 B(  1-Au, 13-Au) :   0.1066 B(  1-Au, 15-Au) :   0.1641
B(  1-Au, 16-Fe) :   0.3382 B(  2-Au,  3-Au) :   0.1234 B(  2-Au,  4-Au) :   0.2785
B(  2-Au,  5-Au) :   0.1612 B(  2-Au, 12-Au) :   0.2791 B(  2-Au, 13-Au) :   0.2119
B(  2-Au, 14-Au) :   0.1588 B(  2-Au, 16-Fe) :   0.4729 B(  3-Au,  4-Au) :   0.2394
B(  3-Au,  5-Au) :   0.2657 B(  3-Au,  6-Au) :   0.2810 B(  3-Au,  7-Au) :   0.2351
B(  3-Au, 10-Au) :   0.2369 B(  3-Au, 11-Au) :   0.2806 B(  3-Au, 12-Au) :   0.2381
B(  3-Au, 14-Au) :   0.2652 B(  3-Au, 16-Fe) :   0.2997 B(  4-Au,  5-Au) :   0.2196
B(  4-Au,  6-Au) :   0.1365 B(  4-Au, 12-Au) :   0.1976 B(  5-Au,  6-Au) :   0.2626
B(  5-Au, 16-Fe) :   0.3758 B(  6-Au,  7-Au) :   0.1907 B(  7-Au,  8-Au) :   0.2288
B(  7-Au, 16-Fe) :   0.4111 B(  8-Au,  9-Au) :   0.1327 B(  8-Au, 10-Au) :   0.2289
B(  8-Au, 16-Fe) :   0.4000 B(  9-Au, 10-Au) :   0.1977 B(  9-Au, 14-Au) :   0.1671
B(  9-Au, 15-Au) :   0.1776 B(  9-Au, 16-Fe) :   0.3819 B( 10-Au, 11-Au) :   0.1904
B( 10-Au, 16-Fe) :   0.4117 B( 11-Au, 12-Au) :   0.1360 B( 11-Au, 14-Au) :   0.2638
B( 12-Au, 14-Au) :   0.2208 B( 13-Au, 14-Au) :   0.3191 B( 13-Au, 15-Au) :   0.1619
B( 13-Au, 16-Fe) :   0.3384 B( 14-Au, 16-Fe) :   0.3757 B( 15-Au, 16-Fe) :   0.4082

MP2 TOTAL ENERGY:    -3432.947579479 Eh
FINAL SINGLE POINT ENERGY     -3432.947579479099

DIPOLE MOMENT
-------------
                                X             Y             Z
Electronic contribution:     10.06281      19.80379     -23.20781
Nuclear contribution   :    -10.10566     -19.94388      23.31104
                        -----------------------------------------
Total Dipole Moment    :     -0.04285      -0.14010       0.10323
                        -----------------------------------------
Magnitude (a.u.)       :      0.17922
Magnitude (Debye)      :      0.45553

Rotational constants in cm-1:     0.000965     0.000822     0.000732
Rotational constants in MHz :    28.920616    24.632285    21.932855

                             ****ORCA TERMINATED NORMALLY****
TOTAL RUN TIME: 0 days 0 hours 41 minutes 51 seconds 111 msec
