                         Program Version 5.0.3 -  RELEASE  -
|  1> !R2SCAN def2-TZVP VERYSLOWCONV
|  2>
|  3> %scf
|  4>   AutoTRAHIter 400
|  5>   maxiter 800
|  6> end
|  7>
|  8> %pal nprocs 6 end
|  9>
| 10> *xyzfile 0 5 pbe.xyz
| 11>
| 12> $new_job
| 13>
| 14> !R2SCAN def2-TZVP SLOWCONV
| 15> %scf
| 16>   AutoTRAHIter 800
| 17>   maxiter 1200
| 18> end
| 19>
| 20>
| 21> %pal nprocs 6 end
| 22>
| 23> *xyzfile 0 3 pbe.xyz
| 24>
| 25>
| 26>
| 27>
| 28>
| 29>                          ****END OF INPUT****
 Total Charge           Charge          ....    0
 Multiplicity           Mult            ....    5
 Number of Electrons    NEL             ....  330
FINAL SINGLE POINT ENERGY     -3437.296826049437

CARTESIAN COORDINATES (ANGSTROEM)
---------------------------------
  Au     8.529058    6.915375    9.671709
  Au     8.465609    5.098995    7.410940
  Au     7.916520    6.529139    5.045373
  Au     7.635500    9.873369    6.091442
  Au     9.694720    8.628198    4.565777
  Au     9.738556    7.513219    7.137666
  Au    10.321804   10.203529    6.823403
  Au     8.351454    9.563151    8.754315
  Au     6.087105    8.350551    9.837938
  Au     4.326100    7.087755    8.006004
  Au     5.272994    9.688841    7.532837
  Au     5.208635   10.411787    4.795093
  Au     7.095101    8.727271    3.536736
  Au     5.789799    5.210814    6.346584
  Au     5.220906    7.697898    5.346475
  Au     6.228730    5.367573    9.169870
  Fe     6.978626    7.408132    7.488571

 Multiplicity           Mult            ....    3
 Number of Electrons    NEL             ....  330
 Basis Dimension        Dim             ....  685

ORBITAL ENERGIES
----------------
                 SPIN UP ORBITALS
  NO   OCC          E(Eh)            E(eV)
   0   1.0000    -255.618684     -6955.7380
   1   1.0000     -29.910995      -813.9196
   2   1.0000     -25.749362      -700.6758
   3   1.0000     -25.740136      -700.4247
   4   1.0000     -25.736781      -700.3334
   5   1.0000      -4.125816      -112.2692
   6   1.0000      -4.125791      -112.2685
   7   1.0000      -4.125712      -112.2663
   8   1.0000      -4.125491      -112.2603
   9   1.0000      -4.124324      -112.2286
  10   1.0000      -4.123300      -112.2007
  11   1.0000      -4.123174      -112.1973
  12   1.0000      -4.121178      -112.1430
  13   1.0000      -4.121166      -112.1426
  14   1.0000      -4.120662      -112.1289
  15   1.0000      -4.120476      -112.1239
  16   1.0000      -4.114420      -111.9591
  17   1.0000      -4.112614      -111.9099
  18   1.0000      -4.112263      -111.9004
  19   1.0000      -4.110935      -111.8642
  20   1.0000      -4.110902      -111.8633
  21   1.0000      -3.489762       -94.9612
  22   1.0000      -2.316025       -63.0223
  23   1.0000      -2.315729       -63.0142
  24   1.0000      -2.314888       -62.9913
  25   1.0000      -2.314613       -62.9838
  26   1.0000      -2.313318       -62.9486
  27   1.0000      -2.312340       -62.9220
  28   1.0000      -2.311801       -62.9073
  29   1.0000      -2.311504       -62.8992
  30   1.0000      -2.310945       -62.8840
  31   1.0000      -2.310125       -62.8617
  32   1.0000      -2.309888       -62.8553
  33   1.0000      -2.309699       -62.8501
  34   1.0000      -2.309532       -62.8456
  35   1.0000      -2.309325       -62.8399
  36   1.0000      -2.309168       -62.8356
  37   1.0000      -2.308954       -62.8298
  38   1.0000      -2.308792       -62.8254
  39   1.0000      -2.308421       -62.8153
  40   1.0000      -2.308351       -62.8134
  41   1.0000      -2.308224       -62.8100
  42   1.0000      -2.307970       -62.8030
  43   1.0000      -2.307437       -62.7886
  44   1.0000      -2.307220       -62.7827
  45   1.0000      -2.306897       -62.7739
  46   1.0000      -2.306770       -62.7704
  47   1.0000      -2.306397       -62.7603
  48   1.0000      -2.306270       -62.7568
  49   1.0000      -2.305803       -62.7441
  50   1.0000      -2.305621       -62.7391
  51   1.0000      -2.305406       -62.7333
  52   1.0000      -2.305354       -62.7319
  53   1.0000      -2.303406       -62.6789
  54   1.0000      -2.303215       -62.6737
  55   1.0000      -2.301513       -62.6274
  56   1.0000      -2.300539       -62.6009
  57   1.0000      -2.300259       -62.5932
  58   1.0000      -2.299623       -62.5759
  59   1.0000      -2.298647       -62.5494
  60   1.0000      -2.298560       -62.5470
  61   1.0000      -2.297960       -62.5307
  62   1.0000      -2.297811       -62.5266
  63   1.0000      -2.297471       -62.5174
  64   1.0000      -2.297026       -62.5053
  65   1.0000      -2.296120       -62.4806
  66   1.0000      -2.295604       -62.4665
  67   1.0000      -2.295511       -62.4640
  68   1.0000      -2.294588       -62.4389
  69   1.0000      -2.294508       -62.4367
  70   1.0000      -2.271058       -61.7986
  71   1.0000      -2.251303       -61.2611
  72   1.0000      -2.244221       -61.0683
  73   1.0000      -0.447795       -12.1851
  74   1.0000      -0.410139       -11.1604
  75   1.0000      -0.402419       -10.9504
  76   1.0000      -0.398825       -10.8526
  77   1.0000      -0.390701       -10.6315
  78   1.0000      -0.388125       -10.5614
  79   1.0000      -0.384057       -10.4507
  80   1.0000      -0.383296       -10.4300
  81   1.0000      -0.380577       -10.3560
  82   1.0000      -0.378886       -10.3100
  83   1.0000      -0.376823       -10.2539
  84   1.0000      -0.372818       -10.1449
  85   1.0000      -0.366835        -9.9821
  86   1.0000      -0.366494        -9.9728
  87   1.0000      -0.365509        -9.9460
  88   1.0000      -0.364897        -9.9293
  89   1.0000      -0.359246        -9.7756
  90   1.0000      -0.357434        -9.7263
  91   1.0000      -0.356620        -9.7041
  92   1.0000      -0.356220        -9.6932
  93   1.0000      -0.354962        -9.6590
  94   1.0000      -0.351958        -9.5773
  95   1.0000      -0.351395        -9.5619
  96   1.0000      -0.347195        -9.4477
  97   1.0000      -0.346396        -9.4259
  98   1.0000      -0.345548        -9.4028
  99   1.0000      -0.343389        -9.3441
 100   1.0000      -0.340788        -9.2733
 101   1.0000      -0.337080        -9.1724
 102   1.0000      -0.334867        -9.1122
 103   1.0000      -0.332987        -9.0610
 104   1.0000      -0.329416        -8.9639
 105   1.0000      -0.327262        -8.9053
 106   1.0000      -0.326783        -8.8922
 107   1.0000      -0.322368        -8.7721
 108   1.0000      -0.321225        -8.7410
 109   1.0000      -0.320298        -8.7158
 110   1.0000      -0.319331        -8.6894
 111   1.0000      -0.313435        -8.5290
 112   1.0000      -0.312570        -8.5055
 113   1.0000      -0.309960        -8.4344
 114   1.0000      -0.307708        -8.3731
 115   1.0000      -0.306947        -8.3525
 116   1.0000      -0.301800        -8.2124
 117   1.0000      -0.299734        -8.1562
 118   1.0000      -0.298626        -8.1260
 119   1.0000      -0.297235        -8.0882
 120   1.0000      -0.295901        -8.0519
 121   1.0000      -0.295110        -8.0304
 122   1.0000      -0.290066        -7.8931
 123   1.0000      -0.288865        -7.8604
 124   1.0000      -0.288207        -7.8425
 125   1.0000      -0.287003        -7.8098
 126   1.0000      -0.285842        -7.7782
 127   1.0000      -0.284973        -7.7545
 128   1.0000      -0.284041        -7.7291
 129   1.0000      -0.283367        -7.7108
 130   1.0000      -0.281999        -7.6736
 131   1.0000      -0.280551        -7.6342
 132   1.0000      -0.279797        -7.6137
 133   1.0000      -0.277659        -7.5555
 134   1.0000      -0.277193        -7.5428
 135   1.0000      -0.276551        -7.5253
 136   1.0000      -0.276043        -7.5115
 137   1.0000      -0.275273        -7.4906
 138   1.0000      -0.274781        -7.4772
 139   1.0000      -0.272758        -7.4221
 140   1.0000      -0.270147        -7.3511
 141   1.0000      -0.268376        -7.3029
 142   1.0000      -0.267120        -7.2687
 143   1.0000      -0.265276        -7.2185
 144   1.0000      -0.264138        -7.1876
 145   1.0000      -0.262736        -7.1494
 146   1.0000      -0.261610        -7.1188
 147   1.0000      -0.261554        -7.1172
 148   1.0000      -0.259197        -7.0531
 149   1.0000      -0.257906        -7.0180
 150   1.0000      -0.257857        -7.0167
 151   1.0000      -0.256937        -6.9916
 152   1.0000      -0.255849        -6.9620
 153   1.0000      -0.255225        -6.9450
 154   1.0000      -0.253450        -6.8967
 155   1.0000      -0.252845        -6.8803
 156   1.0000      -0.251841        -6.8530
 157   1.0000      -0.249496        -6.7891
 158   1.0000      -0.247797        -6.7429
 159   1.0000      -0.246746        -6.7143
 160   1.0000      -0.239164        -6.5080
 161   1.0000      -0.237981        -6.4758
 162   1.0000      -0.229074        -6.2334
 163   1.0000      -0.215219        -5.8564
 164   1.0000      -0.208551        -5.6750
 165   1.0000      -0.200716        -5.4618
 166   0.0000      -0.184067        -5.0087
 167   0.0000      -0.152625        -4.1531
 168   0.0000      -0.137752        -3.7484
 169   0.0000      -0.134915        -3.6712
 170   0.0000      -0.134567        -3.6617

                 SPIN DOWN ORBITALS
  NO   OCC          E(Eh)            E(eV)
   0   1.0000    -255.617825     -6955.7146
   1   1.0000     -29.838808      -811.9552
   2   1.0000     -25.689689      -699.0520
   3   1.0000     -25.687215      -698.9846
   4   1.0000     -25.684250      -698.9040
   5   1.0000      -4.126880      -112.2981
   6   1.0000      -4.125956      -112.2730
   7   1.0000      -4.125855      -112.2702
   8   1.0000      -4.125762      -112.2677
   9   1.0000      -4.124132      -112.2233
  10   1.0000      -4.123002      -112.1926
  11   1.0000      -4.122882      -112.1893
  12   1.0000      -4.121300      -112.1463
  13   1.0000      -4.121252      -112.1450
  14   1.0000      -4.121061      -112.1398
  15   1.0000      -4.120906      -112.1355
  16   1.0000      -4.114879      -111.9715
  17   1.0000      -4.112679      -111.9117
  18   1.0000      -4.112536      -111.9078
  19   1.0000      -4.112470      -111.9060
  20   1.0000      -4.112324      -111.9020
  21   1.0000      -3.327171       -90.5369
  22   1.0000      -2.316466       -63.0342
  23   1.0000      -2.316062       -63.0233
  24   1.0000      -2.315774       -63.0154
  25   1.0000      -2.314850       -62.9903
  26   1.0000      -2.314107       -62.9701
  27   1.0000      -2.311956       -62.9115
  28   1.0000      -2.311861       -62.9089
  29   1.0000      -2.311507       -62.8993
  30   1.0000      -2.311031       -62.8863
  31   1.0000      -2.309827       -62.8536
  32   1.0000      -2.309669       -62.8493
  33   1.0000      -2.309577       -62.8468
  34   1.0000      -2.309505       -62.8448
  35   1.0000      -2.309139       -62.8349
  36   1.0000      -2.308995       -62.8309
  37   1.0000      -2.308703       -62.8230
  38   1.0000      -2.308620       -62.8207
  39   1.0000      -2.308422       -62.8154
  40   1.0000      -2.308340       -62.8131
  41   1.0000      -2.308044       -62.8051
  42   1.0000      -2.307942       -62.8023
  43   1.0000      -2.307908       -62.8014
  44   1.0000      -2.307289       -62.7845
  45   1.0000      -2.306675       -62.7678
  46   1.0000      -2.306612       -62.7661
  47   1.0000      -2.306576       -62.7651
  48   1.0000      -2.306298       -62.7576
  49   1.0000      -2.306011       -62.7498
  50   1.0000      -2.305864       -62.7458
  51   1.0000      -2.305626       -62.7393
  52   1.0000      -2.305622       -62.7392
  53   1.0000      -2.304001       -62.6950
  54   1.0000      -2.303825       -62.6903
  55   1.0000      -2.301703       -62.6325
  56   1.0000      -2.300846       -62.6092
  57   1.0000      -2.300702       -62.6053
  58   1.0000      -2.300503       -62.5999
  59   1.0000      -2.300365       -62.5961
  60   1.0000      -2.299441       -62.5710
  61   1.0000      -2.299059       -62.5606
  62   1.0000      -2.298095       -62.5343
  63   1.0000      -2.297715       -62.5240
  64   1.0000      -2.297389       -62.5151
  65   1.0000      -2.296901       -62.5018
  66   1.0000      -2.296860       -62.5007
  67   1.0000      -2.296323       -62.4861
  68   1.0000      -2.295858       -62.4735
  69   1.0000      -2.295725       -62.4698
  70   1.0000      -2.101252       -57.1780
  71   1.0000      -2.096268       -57.0423
  72   1.0000      -2.090885       -56.8959
  73   1.0000      -0.446051       -12.1377
  74   1.0000      -0.411168       -11.1885
  75   1.0000      -0.403620       -10.9830
  76   1.0000      -0.399055       -10.8588
  77   1.0000      -0.387141       -10.5346
  78   1.0000      -0.384909       -10.4739
  79   1.0000      -0.380730       -10.3602
  80   1.0000      -0.378018       -10.2864
  81   1.0000      -0.377545       -10.2735
  82   1.0000      -0.377392       -10.2694
  83   1.0000      -0.376002       -10.2315
  84   1.0000      -0.369871       -10.0647
  85   1.0000      -0.366815        -9.9815
  86   1.0000      -0.366512        -9.9733
  87   1.0000      -0.365065        -9.9339
  88   1.0000      -0.363169        -9.8823
  89   1.0000      -0.359534        -9.7834
  90   1.0000      -0.357579        -9.7302
  91   1.0000      -0.357050        -9.7158
  92   1.0000      -0.356128        -9.6907
  93   1.0000      -0.354204        -9.6384
  94   1.0000      -0.352086        -9.5807
  95   1.0000      -0.351981        -9.5779
  96   1.0000      -0.347916        -9.4673
  97   1.0000      -0.346603        -9.4315
  98   1.0000      -0.346186        -9.4202
  99   1.0000      -0.343518        -9.3476
 100   1.0000      -0.340554        -9.2670
 101   1.0000      -0.336909        -9.1677
 102   1.0000      -0.333372        -9.0715
 103   1.0000      -0.333225        -9.0675
 104   1.0000      -0.329566        -8.9679
 105   1.0000      -0.327245        -8.9048
 106   1.0000      -0.327139        -8.9019
 107   1.0000      -0.322426        -8.7737
 108   1.0000      -0.320949        -8.7335
 109   1.0000      -0.318835        -8.6759
 110   1.0000      -0.316804        -8.6207
 111   1.0000      -0.310967        -8.4618
 112   1.0000      -0.310032        -8.4364
 113   1.0000      -0.303463        -8.2577
 114   1.0000      -0.303319        -8.2537
 115   1.0000      -0.301645        -8.2082
 116   1.0000      -0.300991        -8.1904
 117   1.0000      -0.298313        -8.1175
 118   1.0000      -0.297209        -8.0875
 119   1.0000      -0.295994        -8.0544
 120   1.0000      -0.294847        -8.0232
 121   1.0000      -0.292721        -7.9654
 122   1.0000      -0.290719        -7.9109
 123   1.0000      -0.288289        -7.8447
 124   1.0000      -0.288009        -7.8371
 125   1.0000      -0.285517        -7.7693
 126   1.0000      -0.285156        -7.7595
 127   1.0000      -0.284827        -7.7505
 128   1.0000      -0.283866        -7.7244
 129   1.0000      -0.282967        -7.6999
 130   1.0000      -0.282659        -7.6915
 131   1.0000      -0.280149        -7.6232
 132   1.0000      -0.279302        -7.6002
 133   1.0000      -0.278311        -7.5732
 134   1.0000      -0.277695        -7.5565
 135   1.0000      -0.276786        -7.5317
 136   1.0000      -0.276477        -7.5233
 137   1.0000      -0.275198        -7.4885
 138   1.0000      -0.275167        -7.4877
 139   1.0000      -0.273321        -7.4374
 140   1.0000      -0.270125        -7.3505
 141   1.0000      -0.269297        -7.3280
 142   1.0000      -0.265686        -7.2297
 143   1.0000      -0.264273        -7.1912
 144   1.0000      -0.263133        -7.1602
 145   1.0000      -0.262711        -7.1487
 146   1.0000      -0.262261        -7.1365
 147   1.0000      -0.259405        -7.0588
 148   1.0000      -0.258624        -7.0375
 149   1.0000      -0.257377        -7.0036
 150   1.0000      -0.256210        -6.9718
 151   1.0000      -0.254304        -6.9200
 152   1.0000      -0.253248        -6.8912
 153   1.0000      -0.251420        -6.8415
 154   1.0000      -0.250431        -6.8146
 155   1.0000      -0.249264        -6.7828
 156   1.0000      -0.240733        -6.5507
 157   1.0000      -0.234027        -6.3682
 158   1.0000      -0.221899        -6.0382
 159   1.0000      -0.218631        -5.9492
 160   1.0000      -0.209714        -5.7066
 161   1.0000      -0.205239        -5.5848
 162   1.0000      -0.173945        -4.7333
 163   1.0000      -0.169450        -4.6110
 164   0.0000      -0.149357        -4.0642
 165   0.0000      -0.145895        -3.9700
 166   0.0000      -0.142766        -3.8848
 167   0.0000      -0.141366        -3.8468
 168   0.0000      -0.127536        -3.4704

MULLIKEN ATOMIC CHARGES AND SPIN POPULATIONS
--------------------------------------------
   0 Au:    0.358153   -0.054105
   1 Au:    0.376919   -0.024228
   2 Au:   -0.193512    0.016664
   3 Au:   -0.941320   -0.082251
   4 Au:    0.349319   -0.008947
   5 Au:   -0.203492   -0.145598
   6 Au:    0.465604   -0.207785
   7 Au:    0.118166    0.011153
   8 Au:    0.376244   -0.020686
   9 Au:    0.356331   -0.055387
  10 Au:    0.118297    0.010037
  11 Au:    0.463819   -0.213599
  12 Au:    0.354593    0.003836
  13 Au:    0.377761   -0.022794
  14 Au:   -0.198291   -0.141055
  15 Au:    0.206758   -0.003599
  16 Fe:   -2.385350    2.938344
Sum of atomic charges         :   -0.0000000

LOEWDIN ATOMIC CHARGES AND SPIN POPULATIONS
-------------------------------------------
   0 Au:    0.085431   -0.044383
   1 Au:    0.091428   -0.046214
   2 Au:   -0.002450   -0.010080
   3 Au:   -0.135871   -0.087309
   4 Au:    0.032676   -0.036430
   5 Au:   -0.043892   -0.088303
   6 Au:    0.103638   -0.167459
   7 Au:    0.031963   -0.053605
   8 Au:    0.076499   -0.022264
   9 Au:    0.085462   -0.043629
  10 Au:    0.031568   -0.054965
  11 Au:    0.102870   -0.169731
  12 Au:    0.033995   -0.031292
  13 Au:    0.092072   -0.044374
  14 Au:   -0.042900   -0.086169
  15 Au:    0.051997   -0.033389
  16 Fe:   -0.594486    3.019596

  Mayer bond orders larger than 0.100000
B(  0-Au,  5-Au) :   0.1733 B(  0-Au,  7-Au) :   0.2066 B(  0-Au,  8-Au) :   0.1624
B(  0-Au, 15-Au) :   0.2073 B(  0-Au, 16-Fe) :   0.3889 B(  1-Au,  2-Au) :   0.2044
B(  1-Au,  5-Au) :   0.3376 B(  1-Au, 13-Au) :   0.1073 B(  1-Au, 15-Au) :   0.1840
B(  1-Au, 16-Fe) :   0.3789 B(  2-Au,  3-Au) :   0.1001 B(  2-Au,  4-Au) :   0.2768
B(  2-Au,  5-Au) :   0.1721 B(  2-Au, 12-Au) :   0.2792 B(  2-Au, 13-Au) :   0.2021
B(  2-Au, 14-Au) :   0.1685 B(  2-Au, 16-Fe) :   0.4877 B(  3-Au,  4-Au) :   0.2769
B(  3-Au,  5-Au) :   0.1958 B(  3-Au,  6-Au) :   0.3303 B(  3-Au,  7-Au) :   0.2630
B(  3-Au, 10-Au) :   0.2659 B(  3-Au, 11-Au) :   0.3275 B(  3-Au, 12-Au) :   0.2728
B(  3-Au, 14-Au) :   0.1976 B(  3-Au, 16-Fe) :   0.2838 B(  4-Au,  5-Au) :   0.2255
B(  4-Au,  6-Au) :   0.1564 B(  4-Au, 12-Au) :   0.2517 B(  5-Au,  6-Au) :   0.2963
B(  5-Au, 16-Fe) :   0.3794 B(  6-Au,  7-Au) :   0.2139 B(  7-Au,  8-Au) :   0.2222
B(  7-Au, 16-Fe) :   0.4305 B(  8-Au,  9-Au) :   0.1622 B(  8-Au, 10-Au) :   0.2223
B(  8-Au, 16-Fe) :   0.4428 B(  9-Au, 10-Au) :   0.2053 B(  9-Au, 14-Au) :   0.1754
B(  9-Au, 15-Au) :   0.2063 B(  9-Au, 16-Fe) :   0.3899 B( 10-Au, 11-Au) :   0.2131
B( 10-Au, 16-Fe) :   0.4320 B( 11-Au, 12-Au) :   0.1524 B( 11-Au, 14-Au) :   0.3036
B( 12-Au, 14-Au) :   0.2305 B( 13-Au, 14-Au) :   0.3418 B( 13-Au, 15-Au) :   0.1810
B( 13-Au, 16-Fe) :   0.3784 B( 14-Au, 16-Fe) :   0.3751 B( 15-Au, 16-Fe) :   0.3852

FINAL SINGLE POINT ENERGY     -3437.275208895389

DIPOLE MOMENT
-------------
                                X             Y             Z
Electronic contribution:     10.02545      19.88381     -23.09815
Nuclear contribution   :    -10.10566     -19.94388      23.31104
                        -----------------------------------------
Total Dipole Moment    :     -0.08021      -0.06007       0.21289
                        -----------------------------------------
Magnitude (a.u.)       :      0.23530
Magnitude (Debye)      :      0.59807

Rotational constants in cm-1:     0.000965     0.000822     0.000732
Rotational constants in MHz :    28.920616    24.632285    21.932855

                             ****ORCA TERMINATED NORMALLY****
TOTAL RUN TIME: 0 days 0 hours 5 minutes 14 seconds 866 msec
