                         Program Version 5.0.3 -  RELEASE  -
|  1> !RI-B2PLYP def2-TZVP def2-TZVP/C
|  2> !RIJCOSX VERYSLOWCONV
|  3>
|  4> %scf
|  5>   AutoTRAHIter 200
|  6>   maxiter 400
|  7> end
|  8>
|  9>
| 10> %pal nprocs 6 end
| 11>
| 12> *xyzfile 0 6 pbe.xyz
| 13>
| 14> $new_job
| 15>
| 16> !RI-B2PLYP def2-TZVP def2-TZVP/C
| 17> !RIJCOSX VERYSLOWCONV
| 18>
| 19> %scf
| 20>   AutoTRAHIter 200
| 21>   maxiter 400
| 22> end
| 23>
| 24>
| 25> %pal nprocs 6 end
| 26>
| 27> *xyzfile 0 4 pbe.xyz
| 28>
| 29>
| 30>
| 31>
| 32>
| 33>                          ****END OF INPUT****
 Total Charge           Charge          ....    0
 Multiplicity           Mult            ....    6
 Number of Electrons    NEL             ....  311
MP2 TOTAL ENERGY:    -3297.356019558 Eh
FINAL SINGLE POINT ENERGY     -3297.356019557556

CARTESIAN COORDINATES (ANGSTROEM)
---------------------------------
  Au     9.168689    8.700714    5.645794
  Au     6.418867    8.845535    5.465507
  Au    10.120471    9.922433    8.064799
  Au    10.274596    7.050958    7.560646
  Au     7.592941   10.801387    7.020638
  Au     7.781140    6.264874    6.390851
  Au     8.469126    5.833932    9.291482
  Au     9.698383    8.194898   10.206872
  Au     4.988270    6.946666    6.736825
  Au     5.522655    9.283629    8.362707
  Au     7.778877   10.378974    9.742768
  Au     4.614137    6.944255    9.484827
  Au     6.254046    5.166023   10.893965
  Au     6.168135    4.854846    8.116131
  Au     6.938546    7.881509   10.640064
  Fe     7.940363    8.302244    8.042618

 Multiplicity           Mult            ....    4
 Number of Electrons    NEL             ....  311
 Basis Dimension        Dim             ....  645

ORBITAL ENERGIES
----------------
                 SPIN UP ORBITALS
  NO   OCC          E(Eh)            E(eV)
   0   1.0000    -258.351083     -7030.0904
   1   1.0000     -30.911166      -841.1356
   2   1.0000     -26.630633      -724.6564
   3   1.0000     -26.599102      -723.7984
   4   1.0000     -26.598261      -723.7755
   5   1.0000      -4.408407      -119.9589
   6   1.0000      -4.408158      -119.9521
   7   1.0000      -4.407047      -119.9218
   8   1.0000      -4.406940      -119.9189
   9   1.0000      -4.404341      -119.8482
  10   1.0000      -4.404301      -119.8471
  11   1.0000      -4.403928      -119.8370
  12   1.0000      -4.403869      -119.8354
  13   1.0000      -4.400259      -119.7371
  14   1.0000      -4.397547      -119.6633
  15   1.0000      -4.393773      -119.5607
  16   1.0000      -4.391081      -119.4874
  17   1.0000      -4.390273      -119.4654
  18   1.0000      -4.390202      -119.4635
  19   1.0000      -4.388404      -119.4145
  20   1.0000      -3.925446      -106.8168
  21   1.0000      -2.677871       -72.8686
  22   1.0000      -2.612634       -71.0934
  23   1.0000      -2.611984       -71.0757
  24   1.0000      -2.528939       -68.8159
  25   1.0000      -2.528663       -68.8084
  26   1.0000      -2.527919       -68.7882
  27   1.0000      -2.527609       -68.7797
  28   1.0000      -2.526522       -68.7502
  29   1.0000      -2.526356       -68.7456
  30   1.0000      -2.525318       -68.7174
  31   1.0000      -2.525142       -68.7126
  32   1.0000      -2.525071       -68.7107
  33   1.0000      -2.523948       -68.6801
  34   1.0000      -2.523541       -68.6690
  35   1.0000      -2.523367       -68.6643
  36   1.0000      -2.523188       -68.6594
  37   1.0000      -2.522266       -68.6343
  38   1.0000      -2.522143       -68.6310
  39   1.0000      -2.521994       -68.6270
  40   1.0000      -2.521829       -68.6224
  41   1.0000      -2.521165       -68.6044
  42   1.0000      -2.520757       -68.5933
  43   1.0000      -2.520150       -68.5768
  44   1.0000      -2.519601       -68.5618
  45   1.0000      -2.519249       -68.5523
  46   1.0000      -2.519072       -68.5474
  47   1.0000      -2.518505       -68.5320
  48   1.0000      -2.518097       -68.5209
  49   1.0000      -2.516807       -68.4858
  50   1.0000      -2.515718       -68.4562
  51   1.0000      -2.514492       -68.4228
  52   1.0000      -2.513681       -68.4007
  53   1.0000      -2.512637       -68.3723
  54   1.0000      -2.512270       -68.3624
  55   1.0000      -2.512057       -68.3565
  56   1.0000      -2.511389       -68.3384
  57   1.0000      -2.510841       -68.3235
  58   1.0000      -2.508852       -68.2693
  59   1.0000      -2.508392       -68.2568
  60   1.0000      -2.508024       -68.2468
  61   1.0000      -2.507730       -68.2388
  62   1.0000      -2.507226       -68.2251
  63   1.0000      -2.506367       -68.2017
  64   1.0000      -2.505503       -68.1782
  65   1.0000      -2.504949       -68.1631
  66   1.0000      -2.504232       -68.1436
  67   1.0000      -2.503361       -68.1199
  68   1.0000      -2.503205       -68.1157
  69   1.0000      -0.574839       -15.6422
  70   1.0000      -0.570570       -15.5260
  71   1.0000      -0.567615       -15.4456
  72   1.0000      -0.550500       -14.9799
  73   1.0000      -0.525683       -14.3046
  74   1.0000      -0.518637       -14.1128
  75   1.0000      -0.477346       -12.9893
  76   1.0000      -0.472128       -12.8473
  77   1.0000      -0.470968       -12.8157
  78   1.0000      -0.467167       -12.7123
  79   1.0000      -0.464529       -12.6405
  80   1.0000      -0.462806       -12.5936
  81   1.0000      -0.458502       -12.4765
  82   1.0000      -0.457314       -12.4441
  83   1.0000      -0.456532       -12.4229
  84   1.0000      -0.455755       -12.4017
  85   1.0000      -0.454859       -12.3774
  86   1.0000      -0.454753       -12.3745
  87   1.0000      -0.451974       -12.2988
  88   1.0000      -0.451094       -12.2749
  89   1.0000      -0.448945       -12.2164
  90   1.0000      -0.447195       -12.1688
  91   1.0000      -0.446810       -12.1583
  92   1.0000      -0.445842       -12.1320
  93   1.0000      -0.443170       -12.0593
  94   1.0000      -0.441195       -12.0055
  95   1.0000      -0.440398       -11.9838
  96   1.0000      -0.438144       -11.9225
  97   1.0000      -0.435750       -11.8574
  98   1.0000      -0.433621       -11.7994
  99   1.0000      -0.432021       -11.7559
 100   1.0000      -0.430140       -11.7047
 101   1.0000      -0.426859       -11.6154
 102   1.0000      -0.422838       -11.5060
 103   1.0000      -0.421224       -11.4621
 104   1.0000      -0.419781       -11.4228
 105   1.0000      -0.414943       -11.2912
 106   1.0000      -0.414831       -11.2881
 107   1.0000      -0.406172       -11.0525
 108   1.0000      -0.406103       -11.0506
 109   1.0000      -0.404399       -11.0043
 110   1.0000      -0.400727       -10.9043
 111   1.0000      -0.394737       -10.7414
 112   1.0000      -0.393513       -10.7080
 113   1.0000      -0.387593       -10.5470
 114   1.0000      -0.387377       -10.5411
 115   1.0000      -0.384351       -10.4587
 116   1.0000      -0.380212       -10.3461
 117   1.0000      -0.377132       -10.2623
 118   1.0000      -0.377038       -10.2597
 119   1.0000      -0.375166       -10.2088
 120   1.0000      -0.374509       -10.1909
 121   1.0000      -0.373245       -10.1565
 122   1.0000      -0.371689       -10.1142
 123   1.0000      -0.370701       -10.0873
 124   1.0000      -0.370392       -10.0789
 125   1.0000      -0.369852       -10.0642
 126   1.0000      -0.368212       -10.0196
 127   1.0000      -0.367791       -10.0081
 128   1.0000      -0.366061        -9.9610
 129   1.0000      -0.365938        -9.9577
 130   1.0000      -0.363675        -9.8961
 131   1.0000      -0.362886        -9.8746
 132   1.0000      -0.360870        -9.8198
 133   1.0000      -0.356665        -9.7054
 134   1.0000      -0.355945        -9.6857
 135   1.0000      -0.353622        -9.6225
 136   1.0000      -0.352378        -9.5887
 137   1.0000      -0.351131        -9.5548
 138   1.0000      -0.348751        -9.4900
 139   1.0000      -0.348394        -9.4803
 140   1.0000      -0.345826        -9.4104
 141   1.0000      -0.344325        -9.3696
 142   1.0000      -0.342197        -9.3117
 143   1.0000      -0.339539        -9.2393
 144   1.0000      -0.337128        -9.1737
 145   1.0000      -0.336836        -9.1658
 146   1.0000      -0.333626        -9.0784
 147   1.0000      -0.329437        -8.9644
 148   1.0000      -0.328051        -8.9267
 149   1.0000      -0.326925        -8.8961
 150   1.0000      -0.319995        -8.7075
 151   1.0000      -0.313006        -8.5173
 152   1.0000      -0.305012        -8.2998
 153   1.0000      -0.250274        -6.8103
 154   1.0000      -0.230506        -6.2724
 155   1.0000      -0.226836        -6.1725
 156   1.0000      -0.213468        -5.8088
 157   0.0000      -0.124548        -3.3891
 158   0.0000      -0.090121        -2.4523
 159   0.0000      -0.079746        -2.1700
 160   0.0000      -0.068481        -1.8635
 161   0.0000      -0.067229        -1.8294

                 SPIN DOWN ORBITALS
  NO   OCC          E(Eh)            E(eV)
   0   1.0000    -258.349054     -7030.0352
   1   1.0000     -30.818277      -838.6079
   2   1.0000     -26.530136      -721.9217
   3   1.0000     -26.521818      -721.6954
   4   1.0000     -26.521658      -721.6910
   5   1.0000      -4.407902      -119.9451
   6   1.0000      -4.407650      -119.9383
   7   1.0000      -4.407166      -119.9251
   8   1.0000      -4.407057      -119.9221
   9   1.0000      -4.404311      -119.8474
  10   1.0000      -4.404264      -119.8461
  11   1.0000      -4.403938      -119.8372
  12   1.0000      -4.403881      -119.8357
  13   1.0000      -4.399749      -119.7233
  14   1.0000      -4.397243      -119.6551
  15   1.0000      -4.393379      -119.5499
  16   1.0000      -4.391106      -119.4881
  17   1.0000      -4.390188      -119.4631
  18   1.0000      -4.390116      -119.4611
  19   1.0000      -4.388516      -119.4176
  20   1.0000      -3.680395      -100.1487
  21   1.0000      -2.527812       -68.7853
  22   1.0000      -2.527596       -68.7794
  23   1.0000      -2.527073       -68.7652
  24   1.0000      -2.526933       -68.7613
  25   1.0000      -2.525362       -68.7186
  26   1.0000      -2.525158       -68.7130
  27   1.0000      -2.524659       -68.6995
  28   1.0000      -2.524411       -68.6927
  29   1.0000      -2.524330       -68.6905
  30   1.0000      -2.523259       -68.6614
  31   1.0000      -2.523074       -68.6563
  32   1.0000      -2.522844       -68.6501
  33   1.0000      -2.522214       -68.6329
  34   1.0000      -2.521845       -68.6229
  35   1.0000      -2.521782       -68.6212
  36   1.0000      -2.521721       -68.6195
  37   1.0000      -2.521498       -68.6134
  38   1.0000      -2.520796       -68.5943
  39   1.0000      -2.520447       -68.5848
  40   1.0000      -2.519562       -68.5608
  41   1.0000      -2.519515       -68.5595
  42   1.0000      -2.518912       -68.5431
  43   1.0000      -2.518890       -68.5425
  44   1.0000      -2.518106       -68.5212
  45   1.0000      -2.517618       -68.5079
  46   1.0000      -2.516221       -68.4699
  47   1.0000      -2.515245       -68.4433
  48   1.0000      -2.514526       -68.4237
  49   1.0000      -2.513362       -68.3921
  50   1.0000      -2.512660       -68.3730
  51   1.0000      -2.511945       -68.3535
  52   1.0000      -2.511677       -68.3462
  53   1.0000      -2.511319       -68.3365
  54   1.0000      -2.510584       -68.3165
  55   1.0000      -2.508649       -68.2638
  56   1.0000      -2.508532       -68.2606
  57   1.0000      -2.508176       -68.2509
  58   1.0000      -2.507834       -68.2416
  59   1.0000      -2.507372       -68.2291
  60   1.0000      -2.506242       -68.1983
  61   1.0000      -2.506225       -68.1978
  62   1.0000      -2.505075       -68.1666
  63   1.0000      -2.504222       -68.1433
  64   1.0000      -2.503506       -68.1239
  65   1.0000      -2.503376       -68.1203
  66   1.0000      -2.359094       -64.1942
  67   1.0000      -2.358984       -64.1912
  68   1.0000      -2.345268       -63.8180
  69   1.0000      -0.523113       -14.2346
  70   1.0000      -0.483328       -13.1520
  71   1.0000      -0.477881       -13.0038
  72   1.0000      -0.474945       -12.9239
  73   1.0000      -0.472897       -12.8682
  74   1.0000      -0.469715       -12.7816
  75   1.0000      -0.468502       -12.7486
  76   1.0000      -0.465636       -12.6706
  77   1.0000      -0.463183       -12.6039
  78   1.0000      -0.462522       -12.5859
  79   1.0000      -0.461484       -12.5576
  80   1.0000      -0.459805       -12.5119
  81   1.0000      -0.457133       -12.4392
  82   1.0000      -0.456752       -12.4289
  83   1.0000      -0.456121       -12.4117
  84   1.0000      -0.455888       -12.4053
  85   1.0000      -0.453314       -12.3353
  86   1.0000      -0.451957       -12.2984
  87   1.0000      -0.449422       -12.2294
  88   1.0000      -0.449035       -12.2189
  89   1.0000      -0.444311       -12.0903
  90   1.0000      -0.444057       -12.0834
  91   1.0000      -0.440660       -11.9910
  92   1.0000      -0.440434       -11.9848
  93   1.0000      -0.437818       -11.9136
  94   1.0000      -0.433183       -11.7875
  95   1.0000      -0.432823       -11.7777
  96   1.0000      -0.428722       -11.6661
  97   1.0000      -0.425063       -11.5665
  98   1.0000      -0.423862       -11.5339
  99   1.0000      -0.421943       -11.4817
 100   1.0000      -0.419980       -11.4282
 101   1.0000      -0.417197       -11.3525
 102   1.0000      -0.412621       -11.2280
 103   1.0000      -0.407335       -11.0842
 104   1.0000      -0.405324       -11.0294
 105   1.0000      -0.402615       -10.9557
 106   1.0000      -0.401923       -10.9369
 107   1.0000      -0.396936       -10.8012
 108   1.0000      -0.394951       -10.7472
 109   1.0000      -0.392145       -10.6708
 110   1.0000      -0.386920       -10.5286
 111   1.0000      -0.386256       -10.5106
 112   1.0000      -0.385346       -10.4858
 113   1.0000      -0.381786       -10.3889
 114   1.0000      -0.377667       -10.2768
 115   1.0000      -0.376108       -10.2344
 116   1.0000      -0.375701       -10.2233
 117   1.0000      -0.374630       -10.1942
 118   1.0000      -0.373801       -10.1716
 119   1.0000      -0.372044       -10.1238
 120   1.0000      -0.371451       -10.1077
 121   1.0000      -0.369670       -10.0592
 122   1.0000      -0.368607       -10.0303
 123   1.0000      -0.368113       -10.0169
 124   1.0000      -0.365973        -9.9586
 125   1.0000      -0.364379        -9.9153
 126   1.0000      -0.363899        -9.9022
 127   1.0000      -0.362969        -9.8769
 128   1.0000      -0.358098        -9.7443
 129   1.0000      -0.357209        -9.7202
 130   1.0000      -0.355893        -9.6843
 131   1.0000      -0.353036        -9.6066
 132   1.0000      -0.351863        -9.5747
 133   1.0000      -0.349733        -9.5167
 134   1.0000      -0.349231        -9.5031
 135   1.0000      -0.346318        -9.4238
 136   1.0000      -0.345838        -9.4107
 137   1.0000      -0.342957        -9.3323
 138   1.0000      -0.339508        -9.2385
 139   1.0000      -0.338677        -9.2159
 140   1.0000      -0.337375        -9.1804
 141   1.0000      -0.336704        -9.1622
 142   1.0000      -0.334890        -9.1128
 143   1.0000      -0.329243        -8.9592
 144   1.0000      -0.326960        -8.8970
 145   1.0000      -0.326533        -8.8854
 146   1.0000      -0.320565        -8.7230
 147   1.0000      -0.319417        -8.6918
 148   1.0000      -0.314094        -8.5469
 149   1.0000      -0.254648        -6.9293
 150   1.0000      -0.236753        -6.4424
 151   1.0000      -0.234970        -6.3939
 152   1.0000      -0.220887        -6.0106
 153   1.0000      -0.205299        -5.5865
 154   0.0000      -0.094784        -2.5792
 155   0.0000      -0.082728        -2.2511
 156   0.0000      -0.074312        -2.0221
 157   0.0000      -0.066910        -1.8207
 158   0.0000      -0.054836        -1.4922

MULLIKEN ATOMIC CHARGES AND SPIN POPULATIONS
--------------------------------------------
   0 Au:    0.291820   -0.085475
   1 Au:    0.037866    0.015988
   2 Au:    0.214143    0.040664
   3 Au:    0.346631   -0.083683
   4 Au:    0.292387   -0.085440
   5 Au:    0.036406   -0.128515
   6 Au:   -0.228248   -0.176741
   7 Au:    0.269832    0.027011
   8 Au:    0.048745    0.032929
   9 Au:    0.036400   -0.127139
  10 Au:    0.348257   -0.085264
  11 Au:    0.142906    0.067956
  12 Au:    0.444911    0.058204
  13 Au:    0.144710    0.068568
  14 Au:   -0.227713   -0.176463
  15 Fe:   -2.199053    3.637401
Sum of atomic charges         :   -0.0000000

LOEWDIN ATOMIC CHARGES AND SPIN POPULATIONS
-------------------------------------------
   0 Au:    0.050944   -0.065810
   1 Au:    0.016246   -0.053758
   2 Au:    0.034093    0.005184
   3 Au:    0.068095   -0.088725
   4 Au:    0.051087   -0.065740
   5 Au:    0.011254   -0.068957
   6 Au:   -0.057563   -0.078941
   7 Au:    0.052777   -0.057239
   8 Au:   -0.020679   -0.004499
   9 Au:    0.011126   -0.069232
  10 Au:    0.068491   -0.088915
  11 Au:   -0.014573    0.030139
  12 Au:    0.127918    0.036463
  13 Au:   -0.014335    0.030976
  14 Au:   -0.057733   -0.078798
  15 Fe:   -0.327147    3.617851

  Mayer bond orders larger than 0.100000
B(  0-Au,  1-Au) :   0.2344 B(  0-Au,  2-Au) :   0.1445 B(  0-Au,  3-Au) :   0.2143
B(  0-Au,  5-Au) :   0.1727 B(  0-Au, 15-Fe) :   0.3773 B(  1-Au,  4-Au) :   0.2333
B(  1-Au,  8-Au) :   0.3330 B(  1-Au, 15-Fe) :   0.3564 B(  2-Au,  3-Au) :   0.1238
B(  2-Au,  4-Au) :   0.1441 B(  2-Au,  7-Au) :   0.2162 B(  2-Au, 10-Au) :   0.1244
B(  2-Au, 15-Fe) :   0.4615 B(  3-Au,  5-Au) :   0.1489 B(  3-Au,  6-Au) :   0.2568
B(  3-Au, 15-Fe) :   0.4221 B(  4-Au,  9-Au) :   0.1744 B(  4-Au, 10-Au) :   0.2130
B(  4-Au, 15-Fe) :   0.3779 B(  5-Au,  6-Au) :   0.1406 B(  5-Au,  8-Au) :   0.1643
B(  5-Au, 13-Au) :   0.3405 B(  5-Au, 15-Fe) :   0.5215 B(  6-Au,  7-Au) :   0.1994
B(  6-Au, 12-Au) :   0.2845 B(  6-Au, 13-Au) :   0.3074 B(  6-Au, 14-Au) :   0.2283
B(  6-Au, 15-Fe) :   0.4014 B(  7-Au, 14-Au) :   0.2024 B(  7-Au, 15-Fe) :   0.3882
B(  8-Au,  9-Au) :   0.1634 B(  8-Au, 11-Au) :   0.2359 B(  8-Au, 13-Au) :   0.2377
B(  8-Au, 15-Fe) :   0.2103 B(  9-Au, 10-Au) :   0.1489 B(  9-Au, 11-Au) :   0.3418
B(  9-Au, 14-Au) :   0.1372 B(  9-Au, 15-Fe) :   0.5217 B( 10-Au, 14-Au) :   0.2541
B( 10-Au, 15-Fe) :   0.4231 B( 11-Au, 12-Au) :   0.1862 B( 11-Au, 13-Au) :   0.1538
B( 11-Au, 14-Au) :   0.3082 B( 11-Au, 15-Fe) :   0.1118 B( 12-Au, 13-Au) :   0.1873
B( 12-Au, 14-Au) :   0.2854 B( 13-Au, 15-Fe) :   0.1105 B( 14-Au, 15-Fe) :   0.4008

MP2 TOTAL ENERGY:    -3297.349212571 Eh
FINAL SINGLE POINT ENERGY     -3297.349212571345

DIPOLE MOMENT
-------------
                                X             Y             Z
Electronic contribution:    -18.41409     -18.98524       7.81477
Nuclear contribution   :     18.64718      19.02047      -7.60664
                        -----------------------------------------
Total Dipole Moment    :      0.23308       0.03523       0.20812
                        -----------------------------------------
Magnitude (a.u.)       :      0.31446
Magnitude (Debye)      :      0.79929

Rotational constants in cm-1:     0.001144     0.000883     0.000809
Rotational constants in MHz :    34.307185    26.468717    24.259464

                             ****ORCA TERMINATED NORMALLY****
TOTAL RUN TIME: 0 days 0 hours 35 minutes 35 seconds 565 msec
