                         Program Version 5.0.3 -  RELEASE  -
|  1> !PBE def2-TZVP VERYSLOWCONV
|  2>
|  3> %scf
|  4>   AutoTRAHIter 200
|  5>   maxiter 400
|  6> end
|  7>
|  8>
|  9> %pal nprocs 6 end
| 10>
| 11> *xyzfile 0 6 pbe.xyz
| 12>
| 13> $new_job
| 14>
| 15> !PBE def2-TZVP VERYSLOWCONV
| 16>
| 17> %scf
| 18>   AutoTRAHIter 200
| 19>   maxiter 400
| 20> end
| 21>
| 22>
| 23> %pal nprocs 6 end
| 24>
| 25> *xyzfile 0 4 pbe.xyz
| 26>
| 27>
| 28>
| 29>
| 30>
| 31>                          ****END OF INPUT****
 Total Charge           Charge          ....    0
 Multiplicity           Mult            ....    6
 Number of Electrons    NEL             ....  311
FINAL SINGLE POINT ENERGY     -3300.916151225058

CARTESIAN COORDINATES (ANGSTROEM)
---------------------------------
  Au     9.168689    8.700714    5.645794
  Au     6.418867    8.845535    5.465507
  Au    10.120471    9.922433    8.064799
  Au    10.274596    7.050958    7.560646
  Au     7.592941   10.801387    7.020638
  Au     7.781140    6.264874    6.390851
  Au     8.469126    5.833932    9.291482
  Au     9.698383    8.194898   10.206872
  Au     4.988270    6.946666    6.736825
  Au     5.522655    9.283629    8.362707
  Au     7.778877   10.378974    9.742768
  Au     4.614137    6.944255    9.484827
  Au     6.254046    5.166023   10.893965
  Au     6.168135    4.854846    8.116131
  Au     6.938546    7.881509   10.640064
  Fe     7.940363    8.302244    8.042618

 Multiplicity           Mult            ....    4
 Number of Electrons    NEL             ....  311
 Basis Dimension        Dim             ....  645

ORBITAL ENERGIES
----------------
                 SPIN UP ORBITALS
  NO   OCC          E(Eh)            E(eV)
   0   1.0000    -254.757489     -6932.3037
   1   1.0000     -29.594151      -805.2978
   2   1.0000     -25.535532      -694.8571
   3   1.0000     -25.532727      -694.7808
   4   1.0000     -25.520546      -694.4494
   5   1.0000      -4.037953      -109.8783
   6   1.0000      -4.037768      -109.8733
   7   1.0000      -4.033256      -109.7505
   8   1.0000      -4.033221      -109.7495
   9   1.0000      -4.032968      -109.7426
  10   1.0000      -4.032888      -109.7405
  11   1.0000      -4.031058      -109.6907
  12   1.0000      -4.031008      -109.6893
  13   1.0000      -4.028529      -109.6218
  14   1.0000      -4.026693      -109.5719
  15   1.0000      -4.023561      -109.4867
  16   1.0000      -4.021243      -109.4236
  17   1.0000      -4.019955      -109.3885
  18   1.0000      -4.019904      -109.3871
  19   1.0000      -4.017621      -109.3250
  20   1.0000      -3.373094       -91.7865
  21   1.0000      -2.254020       -61.3350
  22   1.0000      -2.253841       -61.3301
  23   1.0000      -2.251137       -61.2566
  24   1.0000      -2.250971       -61.2520
  25   1.0000      -2.250270       -61.2330
  26   1.0000      -2.249973       -61.2249
  27   1.0000      -2.248836       -61.1939
  28   1.0000      -2.248785       -61.1926
  29   1.0000      -2.247660       -61.1619
  30   1.0000      -2.247479       -61.1570
  31   1.0000      -2.246718       -61.1363
  32   1.0000      -2.246404       -61.1278
  33   1.0000      -2.245573       -61.1051
  34   1.0000      -2.245464       -61.1022
  35   1.0000      -2.244735       -61.0823
  36   1.0000      -2.244405       -61.0734
  37   1.0000      -2.244191       -61.0676
  38   1.0000      -2.244071       -61.0643
  39   1.0000      -2.244003       -61.0624
  40   1.0000      -2.243844       -61.0581
  41   1.0000      -2.243772       -61.0561
  42   1.0000      -2.243078       -61.0373
  43   1.0000      -2.242609       -61.0245
  44   1.0000      -2.242244       -61.0146
  45   1.0000      -2.241878       -61.0046
  46   1.0000      -2.241726       -61.0005
  47   1.0000      -2.240261       -60.9606
  48   1.0000      -2.240120       -60.9568
  49   1.0000      -2.239839       -60.9491
  50   1.0000      -2.238536       -60.9137
  51   1.0000      -2.237790       -60.8934
  52   1.0000      -2.237169       -60.8765
  53   1.0000      -2.236083       -60.8469
  54   1.0000      -2.235911       -60.8422
  55   1.0000      -2.234827       -60.8127
  56   1.0000      -2.234306       -60.7985
  57   1.0000      -2.233700       -60.7821
  58   1.0000      -2.233561       -60.7783
  59   1.0000      -2.232972       -60.7623
  60   1.0000      -2.231827       -60.7311
  61   1.0000      -2.230897       -60.7058
  62   1.0000      -2.230267       -60.6886
  63   1.0000      -2.229646       -60.6718
  64   1.0000      -2.228968       -60.6533
  65   1.0000      -2.228436       -60.6388
  66   1.0000      -2.199054       -59.8393
  67   1.0000      -2.193318       -59.6832
  68   1.0000      -2.168471       -59.0071
  69   1.0000      -0.441608       -12.0168
  70   1.0000      -0.394314       -10.7298
  71   1.0000      -0.391426       -10.6512
  72   1.0000      -0.388382       -10.5684
  73   1.0000      -0.381482       -10.3807
  74   1.0000      -0.380748       -10.3607
  75   1.0000      -0.375931       -10.2296
  76   1.0000      -0.372261       -10.1297
  77   1.0000      -0.370589       -10.0842
  78   1.0000      -0.362931        -9.8759
  79   1.0000      -0.362061        -9.8522
  80   1.0000      -0.359668        -9.7871
  81   1.0000      -0.357742        -9.7347
  82   1.0000      -0.354858        -9.6562
  83   1.0000      -0.354520        -9.6470
  84   1.0000      -0.350159        -9.5283
  85   1.0000      -0.348823        -9.4920
  86   1.0000      -0.348283        -9.4773
  87   1.0000      -0.345291        -9.3959
  88   1.0000      -0.344128        -9.3642
  89   1.0000      -0.343902        -9.3580
  90   1.0000      -0.340958        -9.2779
  91   1.0000      -0.340118        -9.2551
  92   1.0000      -0.338751        -9.2179
  93   1.0000      -0.334812        -9.1107
  94   1.0000      -0.331707        -9.0262
  95   1.0000      -0.330801        -9.0016
  96   1.0000      -0.329300        -8.9607
  97   1.0000      -0.329143        -8.9564
  98   1.0000      -0.328219        -8.9313
  99   1.0000      -0.323845        -8.8123
 100   1.0000      -0.320192        -8.7129
 101   1.0000      -0.318760        -8.6739
 102   1.0000      -0.312193        -8.4952
 103   1.0000      -0.310930        -8.4608
 104   1.0000      -0.307657        -8.3718
 105   1.0000      -0.307158        -8.3582
 106   1.0000      -0.304689        -8.2910
 107   1.0000      -0.304068        -8.2741
 108   1.0000      -0.299568        -8.1516
 109   1.0000      -0.298668        -8.1272
 110   1.0000      -0.292887        -7.9699
 111   1.0000      -0.291813        -7.9406
 112   1.0000      -0.291194        -7.9238
 113   1.0000      -0.288203        -7.8424
 114   1.0000      -0.287013        -7.8100
 115   1.0000      -0.286884        -7.8065
 116   1.0000      -0.279888        -7.6161
 117   1.0000      -0.279770        -7.6129
 118   1.0000      -0.277304        -7.5458
 119   1.0000      -0.276611        -7.5270
 120   1.0000      -0.276388        -7.5209
 121   1.0000      -0.275335        -7.4922
 122   1.0000      -0.273193        -7.4340
 123   1.0000      -0.272006        -7.4017
 124   1.0000      -0.271014        -7.3747
 125   1.0000      -0.270040        -7.3482
 126   1.0000      -0.268830        -7.3152
 127   1.0000      -0.267796        -7.2871
 128   1.0000      -0.267625        -7.2824
 129   1.0000      -0.263258        -7.1636
 130   1.0000      -0.262795        -7.1510
 131   1.0000      -0.260791        -7.0965
 132   1.0000      -0.259445        -7.0598
 133   1.0000      -0.259370        -7.0578
 134   1.0000      -0.257542        -7.0081
 135   1.0000      -0.257118        -6.9965
 136   1.0000      -0.256185        -6.9711
 137   1.0000      -0.256033        -6.9670
 138   1.0000      -0.254102        -6.9145
 139   1.0000      -0.253287        -6.8923
 140   1.0000      -0.251713        -6.8495
 141   1.0000      -0.250366        -6.8128
 142   1.0000      -0.250132        -6.8064
 143   1.0000      -0.249201        -6.7811
 144   1.0000      -0.248260        -6.7555
 145   1.0000      -0.246565        -6.7094
 146   1.0000      -0.244923        -6.6647
 147   1.0000      -0.243567        -6.6278
 148   1.0000      -0.242906        -6.6098
 149   1.0000      -0.240365        -6.5407
 150   1.0000      -0.240007        -6.5309
 151   1.0000      -0.237548        -6.4640
 152   1.0000      -0.234148        -6.3715
 153   1.0000      -0.219093        -5.9618
 154   1.0000      -0.209499        -5.7008
 155   1.0000      -0.205728        -5.5981
 156   1.0000      -0.197791        -5.3822
 157   0.0000      -0.188140        -5.1196
 158   0.0000      -0.148067        -4.0291
 159   0.0000      -0.141928        -3.8620
 160   0.0000      -0.132792        -3.6135
 161   0.0000      -0.126793        -3.4502

                 SPIN DOWN ORBITALS
  NO   OCC          E(Eh)            E(eV)
   0   1.0000    -254.756817     -6932.2854
   1   1.0000     -29.536566      -803.7308
   2   1.0000     -25.489883      -693.6150
   3   1.0000     -25.487766      -693.5574
   4   1.0000     -25.480725      -693.3658
   5   1.0000      -4.037131      -109.8559
   6   1.0000      -4.036940      -109.8507
   7   1.0000      -4.033316      -109.7521
   8   1.0000      -4.033235      -109.7499
   9   1.0000      -4.033026      -109.7442
  10   1.0000      -4.032992      -109.7433
  11   1.0000      -4.030918      -109.6869
  12   1.0000      -4.030868      -109.6855
  13   1.0000      -4.028299      -109.6156
  14   1.0000      -4.026320      -109.5617
  15   1.0000      -4.023749      -109.4918
  16   1.0000      -4.021489      -109.4303
  17   1.0000      -4.020017      -109.3902
  18   1.0000      -4.019962      -109.3887
  19   1.0000      -4.017669      -109.3263
  20   1.0000      -3.242541       -88.2340
  21   1.0000      -2.252767       -61.3009
  22   1.0000      -2.252608       -61.2966
  23   1.0000      -2.250674       -61.2440
  24   1.0000      -2.250387       -61.2361
  25   1.0000      -2.250020       -61.2262
  26   1.0000      -2.249849       -61.2215
  27   1.0000      -2.248374       -61.1814
  28   1.0000      -2.248334       -61.1803
  29   1.0000      -2.247365       -61.1539
  30   1.0000      -2.247168       -61.1485
  31   1.0000      -2.246593       -61.1329
  32   1.0000      -2.246330       -61.1258
  33   1.0000      -2.245793       -61.1111
  34   1.0000      -2.245161       -61.0939
  35   1.0000      -2.244626       -61.0794
  36   1.0000      -2.244241       -61.0689
  37   1.0000      -2.244105       -61.0652
  38   1.0000      -2.244021       -61.0629
  39   1.0000      -2.243771       -61.0561
  40   1.0000      -2.243759       -61.0558
  41   1.0000      -2.243637       -61.0525
  42   1.0000      -2.243066       -61.0369
  43   1.0000      -2.242932       -61.0333
  44   1.0000      -2.241938       -61.0062
  45   1.0000      -2.241688       -60.9994
  46   1.0000      -2.241313       -60.9892
  47   1.0000      -2.240137       -60.9572
  48   1.0000      -2.240024       -60.9541
  49   1.0000      -2.239137       -60.9300
  50   1.0000      -2.238272       -60.9065
  51   1.0000      -2.237880       -60.8958
  52   1.0000      -2.237203       -60.8774
  53   1.0000      -2.236317       -60.8533
  54   1.0000      -2.236123       -60.8480
  55   1.0000      -2.234944       -60.8159
  56   1.0000      -2.234866       -60.8138
  57   1.0000      -2.234022       -60.7908
  58   1.0000      -2.233631       -60.7802
  59   1.0000      -2.233207       -60.7686
  60   1.0000      -2.231970       -60.7350
  61   1.0000      -2.231084       -60.7109
  62   1.0000      -2.230329       -60.6903
  63   1.0000      -2.229652       -60.6719
  64   1.0000      -2.228930       -60.6523
  65   1.0000      -2.228383       -60.6374
  66   1.0000      -2.064673       -56.1826
  67   1.0000      -2.061982       -56.1094
  68   1.0000      -2.050795       -55.8050
  69   1.0000      -0.437363       -11.9012
  70   1.0000      -0.393899       -10.7185
  71   1.0000      -0.390800       -10.6342
  72   1.0000      -0.387610       -10.5474
  73   1.0000      -0.374193       -10.1823
  74   1.0000      -0.372694       -10.1415
  75   1.0000      -0.370259       -10.0753
  76   1.0000      -0.367237        -9.9930
  77   1.0000      -0.364737        -9.9250
  78   1.0000      -0.361478        -9.8363
  79   1.0000      -0.360646        -9.8137
  80   1.0000      -0.358621        -9.7586
  81   1.0000      -0.356627        -9.7043
  82   1.0000      -0.354636        -9.6501
  83   1.0000      -0.351792        -9.5727
  84   1.0000      -0.350686        -9.5426
  85   1.0000      -0.347913        -9.4672
  86   1.0000      -0.347233        -9.4487
  87   1.0000      -0.345151        -9.3920
  88   1.0000      -0.344110        -9.3637
  89   1.0000      -0.343653        -9.3513
  90   1.0000      -0.341106        -9.2820
  91   1.0000      -0.340011        -9.2522
  92   1.0000      -0.337737        -9.1903
  93   1.0000      -0.334680        -9.1071
  94   1.0000      -0.330747        -9.0001
  95   1.0000      -0.330522        -8.9940
  96   1.0000      -0.328217        -8.9313
  97   1.0000      -0.328000        -8.9253
  98   1.0000      -0.323539        -8.8040
  99   1.0000      -0.322131        -8.7656
 100   1.0000      -0.318103        -8.6560
 101   1.0000      -0.317781        -8.6473
 102   1.0000      -0.308979        -8.4077
 103   1.0000      -0.308106        -8.3840
 104   1.0000      -0.304700        -8.2913
 105   1.0000      -0.304652        -8.2900
 106   1.0000      -0.300007        -8.1636
 107   1.0000      -0.299749        -8.1566
 108   1.0000      -0.296777        -8.0757
 109   1.0000      -0.296224        -8.0607
 110   1.0000      -0.291156        -7.9228
 111   1.0000      -0.288019        -7.8374
 112   1.0000      -0.287187        -7.8148
 113   1.0000      -0.284249        -7.7348
 114   1.0000      -0.283510        -7.7147
 115   1.0000      -0.280735        -7.6392
 116   1.0000      -0.279291        -7.5999
 117   1.0000      -0.278156        -7.5690
 118   1.0000      -0.277075        -7.5396
 119   1.0000      -0.275841        -7.5060
 120   1.0000      -0.275263        -7.4903
 121   1.0000      -0.274971        -7.4824
 122   1.0000      -0.273029        -7.4295
 123   1.0000      -0.271812        -7.3964
 124   1.0000      -0.270572        -7.3626
 125   1.0000      -0.269527        -7.3342
 126   1.0000      -0.268018        -7.2931
 127   1.0000      -0.267626        -7.2825
 128   1.0000      -0.266809        -7.2602
 129   1.0000      -0.262918        -7.1544
 130   1.0000      -0.261493        -7.1156
 131   1.0000      -0.259177        -7.0526
 132   1.0000      -0.258748        -7.0409
 133   1.0000      -0.257174        -6.9981
 134   1.0000      -0.256230        -6.9724
 135   1.0000      -0.255513        -6.9529
 136   1.0000      -0.253884        -6.9085
 137   1.0000      -0.251080        -6.8322
 138   1.0000      -0.250670        -6.8211
 139   1.0000      -0.249475        -6.7886
 140   1.0000      -0.248160        -6.7528
 141   1.0000      -0.247065        -6.7230
 142   1.0000      -0.245574        -6.6824
 143   1.0000      -0.244573        -6.6552
 144   1.0000      -0.243199        -6.6178
 145   1.0000      -0.241484        -6.5711
 146   1.0000      -0.240998        -6.5579
 147   1.0000      -0.234706        -6.3867
 148   1.0000      -0.226446        -6.1619
 149   1.0000      -0.214387        -5.8338
 150   1.0000      -0.211890        -5.7658
 151   1.0000      -0.206936        -5.6310
 152   1.0000      -0.205172        -5.5830
 153   1.0000      -0.179443        -4.8829
 154   0.0000      -0.162977        -4.4348
 155   0.0000      -0.162703        -4.4274
 156   0.0000      -0.155885        -4.2418
 157   0.0000      -0.154297        -4.1986
 158   0.0000      -0.142261        -3.8711

MULLIKEN ATOMIC CHARGES AND SPIN POPULATIONS
--------------------------------------------
   0 Au:    0.332283   -0.032325
   1 Au:    0.114257    0.039421
   2 Au:    0.257646    0.049889
   3 Au:    0.386842   -0.011513
   4 Au:    0.332875   -0.032390
   5 Au:    0.070982   -0.004100
   6 Au:   -0.203727   -0.078686
   7 Au:    0.335680    0.070359
   8 Au:    0.057543    0.038605
   9 Au:    0.070977   -0.002596
  10 Au:    0.388534   -0.012758
  11 Au:    0.157476    0.057439
  12 Au:    0.417100   -0.066763
  13 Au:    0.158462    0.057913
  14 Au:   -0.203459   -0.078650
  15 Fe:   -2.673471    3.006155
Sum of atomic charges         :   -0.0000000

LOEWDIN ATOMIC CHARGES AND SPIN POPULATIONS
-------------------------------------------
   0 Au:    0.068862   -0.022280
   1 Au:    0.042187   -0.007755
   2 Au:    0.055425    0.028091
   3 Au:    0.095301   -0.022442
   4 Au:    0.068948   -0.022390
   5 Au:    0.051578    0.009215
   6 Au:   -0.028422   -0.046503
   7 Au:    0.086070    0.003166
   8 Au:   -0.003003    0.020972
   9 Au:    0.051444    0.009492
  10 Au:    0.095863   -0.022801
  11 Au:   -0.009569    0.023127
  12 Au:    0.087810   -0.033557
  13 Au:   -0.009821    0.023744
  14 Au:   -0.028674   -0.046442
  15 Fe:   -0.624000    3.106362

  Mayer bond orders larger than 0.100000
B(  0-Au,  1-Au) :   0.2529 B(  0-Au,  2-Au) :   0.1754 B(  0-Au,  3-Au) :   0.2414
B(  0-Au,  4-Au) :   0.1119 B(  0-Au,  5-Au) :   0.1711 B(  0-Au, 15-Fe) :   0.4129
B(  1-Au,  4-Au) :   0.2518 B(  1-Au,  8-Au) :   0.3653 B(  1-Au, 15-Fe) :   0.3766
B(  2-Au,  3-Au) :   0.1425 B(  2-Au,  4-Au) :   0.1750 B(  2-Au,  7-Au) :   0.2427
B(  2-Au, 10-Au) :   0.1433 B(  2-Au, 15-Fe) :   0.4934 B(  3-Au,  5-Au) :   0.1723
B(  3-Au,  6-Au) :   0.2585 B(  3-Au, 15-Fe) :   0.4634 B(  4-Au,  9-Au) :   0.1729
B(  4-Au, 10-Au) :   0.2397 B(  4-Au, 15-Fe) :   0.4127 B(  5-Au,  6-Au) :   0.1685
B(  5-Au,  8-Au) :   0.1806 B(  5-Au, 13-Au) :   0.3668 B(  5-Au, 15-Fe) :   0.5665
B(  6-Au,  7-Au) :   0.2182 B(  6-Au, 12-Au) :   0.3027 B(  6-Au, 13-Au) :   0.3302
B(  6-Au, 14-Au) :   0.2580 B(  6-Au, 15-Fe) :   0.4395 B(  7-Au, 14-Au) :   0.2215
B(  7-Au, 15-Fe) :   0.4205 B(  8-Au,  9-Au) :   0.1797 B(  8-Au, 11-Au) :   0.2758
B(  8-Au, 13-Au) :   0.2781 B(  8-Au, 15-Fe) :   0.2354 B(  9-Au, 10-Au) :   0.1726
B(  9-Au, 11-Au) :   0.3685 B(  9-Au, 14-Au) :   0.1642 B(  9-Au, 15-Fe) :   0.5674
B( 10-Au, 14-Au) :   0.2557 B( 10-Au, 15-Fe) :   0.4647 B( 11-Au, 12-Au) :   0.2318
B( 11-Au, 13-Au) :   0.1922 B( 11-Au, 14-Au) :   0.3312 B( 11-Au, 15-Fe) :   0.1087
B( 12-Au, 13-Au) :   0.2336 B( 12-Au, 14-Au) :   0.3041 B( 13-Au, 15-Fe) :   0.1075
B( 14-Au, 15-Fe) :   0.4391

FINAL SINGLE POINT ENERGY     -3300.910604548595

DIPOLE MOMENT
-------------
                                X             Y             Z
Electronic contribution:    -18.39672     -18.85557       7.63938
Nuclear contribution   :     18.64718      19.02047      -7.60664
                        -----------------------------------------
Total Dipole Moment    :      0.25046       0.16490       0.03274
                        -----------------------------------------
Magnitude (a.u.)       :      0.30165
Magnitude (Debye)      :      0.76674

Rotational constants in cm-1:     0.001144     0.000883     0.000809
Rotational constants in MHz :    34.307185    26.468717    24.259464

                             ****ORCA TERMINATED NORMALLY****
TOTAL RUN TIME: 0 days 0 hours 13 minutes 41 seconds 29 msec
