                         Program Version 5.0.3 -  RELEASE  -
|  1> !R2SCAN def2-TZVP VERYSLOWCONV
|  2>
|  3> %scf
|  4>   AutoTRAHIter 200
|  5>   maxiter 400
|  6> end
|  7>
|  8> %pal nprocs 6 end
|  9>
| 10> *xyzfile 0 6 pbe.xyz
| 11>
| 12> $new_job
| 13>
| 14> !R2SCAN def2-TZVP VERYSLOWCONV
| 15> %scf
| 16>   AutoTRAHIter 200
| 17>   maxiter 400
| 18> end
| 19>
| 20>
| 21> %pal nprocs 6 end
| 22>
| 23> *xyzfile 0 4 pbe.xyz
| 24>
| 25>
| 26>
| 27>
| 28>
| 29>                          ****END OF INPUT****
 Total Charge           Charge          ....    0
 Multiplicity           Mult            ....    6
 Number of Electrons    NEL             ....  311
FINAL SINGLE POINT ENERGY     -3301.433773802754

CARTESIAN COORDINATES (ANGSTROEM)
---------------------------------
  Au     9.168689    8.700714    5.645794
  Au     6.418867    8.845535    5.465507
  Au    10.120471    9.922433    8.064799
  Au    10.274596    7.050958    7.560646
  Au     7.592941   10.801387    7.020638
  Au     7.781140    6.264874    6.390851
  Au     8.469126    5.833932    9.291482
  Au     9.698383    8.194898   10.206872
  Au     4.988270    6.946666    6.736825
  Au     5.522655    9.283629    8.362707
  Au     7.778877   10.378974    9.742768
  Au     4.614137    6.944255    9.484827
  Au     6.254046    5.166023   10.893965
  Au     6.168135    4.854846    8.116131
  Au     6.938546    7.881509   10.640064
  Fe     7.940363    8.302244    8.042618

 Multiplicity           Mult            ....    4
 Number of Electrons    NEL             ....  311
 Basis Dimension        Dim             ....  645

ORBITAL ENERGIES
----------------
                 SPIN UP ORBITALS
  NO   OCC          E(Eh)            E(eV)
   0   1.0000    -255.639995     -6956.3179
   1   1.0000     -29.937582      -814.6430
   2   1.0000     -25.774761      -701.3669
   3   1.0000     -25.771652      -701.2823
   4   1.0000     -25.757276      -700.8911
   5   1.0000      -4.129269      -112.3631
   6   1.0000      -4.129070      -112.3577
   7   1.0000      -4.124659      -112.2377
   8   1.0000      -4.124604      -112.2362
   9   1.0000      -4.124045      -112.2210
  10   1.0000      -4.123963      -112.2187
  11   1.0000      -4.122073      -112.1673
  12   1.0000      -4.122015      -112.1657
  13   1.0000      -4.119377      -112.0940
  14   1.0000      -4.116423      -112.0136
  15   1.0000      -4.113881      -111.9444
  16   1.0000      -4.111170      -111.8706
  17   1.0000      -4.110206      -111.8444
  18   1.0000      -4.110149      -111.8428
  19   1.0000      -4.108745      -111.8046
  20   1.0000      -3.518504       -95.7434
  21   1.0000      -2.318446       -63.0881
  22   1.0000      -2.318122       -63.0793
  23   1.0000      -2.315285       -63.0021
  24   1.0000      -2.315111       -62.9974
  25   1.0000      -2.314303       -62.9754
  26   1.0000      -2.314068       -62.9690
  27   1.0000      -2.313133       -62.9435
  28   1.0000      -2.313080       -62.9421
  29   1.0000      -2.311755       -62.9061
  30   1.0000      -2.311567       -62.9009
  31   1.0000      -2.310736       -62.8783
  32   1.0000      -2.310387       -62.8688
  33   1.0000      -2.309595       -62.8473
  34   1.0000      -2.309412       -62.8423
  35   1.0000      -2.308704       -62.8230
  36   1.0000      -2.308286       -62.8117
  37   1.0000      -2.308176       -62.8087
  38   1.0000      -2.308015       -62.8043
  39   1.0000      -2.307925       -62.8018
  40   1.0000      -2.307850       -62.7998
  41   1.0000      -2.307514       -62.7906
  42   1.0000      -2.306831       -62.7721
  43   1.0000      -2.306670       -62.7677
  44   1.0000      -2.305965       -62.7485
  45   1.0000      -2.305483       -62.7354
  46   1.0000      -2.305179       -62.7271
  47   1.0000      -2.303301       -62.6760
  48   1.0000      -2.303121       -62.6711
  49   1.0000      -2.302877       -62.6645
  50   1.0000      -2.301184       -62.6184
  51   1.0000      -2.300347       -62.5956
  52   1.0000      -2.300053       -62.5876
  53   1.0000      -2.299022       -62.5596
  54   1.0000      -2.298992       -62.5588
  55   1.0000      -2.297795       -62.5262
  56   1.0000      -2.297557       -62.5197
  57   1.0000      -2.297235       -62.5109
  58   1.0000      -2.296476       -62.4903
  59   1.0000      -2.296364       -62.4872
  60   1.0000      -2.295675       -62.4685
  61   1.0000      -2.295410       -62.4613
  62   1.0000      -2.294115       -62.4260
  63   1.0000      -2.294043       -62.4241
  64   1.0000      -2.293306       -62.4040
  65   1.0000      -2.292272       -62.3759
  66   1.0000      -2.291599       -62.3576
  67   1.0000      -2.291140       -62.3451
  68   1.0000      -2.261505       -61.5387
  69   1.0000      -0.447496       -12.1770
  70   1.0000      -0.400250       -10.8913
  71   1.0000      -0.398402       -10.8411
  72   1.0000      -0.395028       -10.7493
  73   1.0000      -0.393351       -10.7036
  74   1.0000      -0.393093       -10.6966
  75   1.0000      -0.386901       -10.5281
  76   1.0000      -0.384193       -10.4544
  77   1.0000      -0.379156       -10.3174
  78   1.0000      -0.372292       -10.1306
  79   1.0000      -0.370998       -10.0954
  80   1.0000      -0.368965       -10.0400
  81   1.0000      -0.366928        -9.9846
  82   1.0000      -0.365015        -9.9326
  83   1.0000      -0.363550        -9.8927
  84   1.0000      -0.359608        -9.7854
  85   1.0000      -0.358251        -9.7485
  86   1.0000      -0.358112        -9.7447
  87   1.0000      -0.354272        -9.6402
  88   1.0000      -0.353720        -9.6252
  89   1.0000      -0.352767        -9.5993
  90   1.0000      -0.350279        -9.5316
  91   1.0000      -0.349231        -9.5031
  92   1.0000      -0.348215        -9.4754
  93   1.0000      -0.343901        -9.3580
  94   1.0000      -0.342587        -9.3223
  95   1.0000      -0.339685        -9.2433
  96   1.0000      -0.339265        -9.2319
  97   1.0000      -0.338497        -9.2110
  98   1.0000      -0.337176        -9.1750
  99   1.0000      -0.333267        -9.0686
 100   1.0000      -0.330219        -8.9857
 101   1.0000      -0.327906        -8.9228
 102   1.0000      -0.323180        -8.7942
 103   1.0000      -0.322058        -8.7636
 104   1.0000      -0.317927        -8.6512
 105   1.0000      -0.317813        -8.6481
 106   1.0000      -0.314596        -8.5606
 107   1.0000      -0.312762        -8.5107
 108   1.0000      -0.309871        -8.4320
 109   1.0000      -0.308874        -8.4049
 110   1.0000      -0.303533        -8.2596
 111   1.0000      -0.301580        -8.2064
 112   1.0000      -0.301535        -8.2052
 113   1.0000      -0.297933        -8.1072
 114   1.0000      -0.296131        -8.0581
 115   1.0000      -0.294955        -8.0261
 116   1.0000      -0.288701        -7.8559
 117   1.0000      -0.288364        -7.8468
 118   1.0000      -0.285967        -7.7816
 119   1.0000      -0.285574        -7.7709
 120   1.0000      -0.285167        -7.7598
 121   1.0000      -0.283863        -7.7243
 122   1.0000      -0.282037        -7.6746
 123   1.0000      -0.280483        -7.6323
 124   1.0000      -0.279683        -7.6106
 125   1.0000      -0.278660        -7.5827
 126   1.0000      -0.278093        -7.5673
 127   1.0000      -0.276406        -7.5214
 128   1.0000      -0.275940        -7.5087
 129   1.0000      -0.274591        -7.4720
 130   1.0000      -0.272712        -7.4209
 131   1.0000      -0.271067        -7.3761
 132   1.0000      -0.269462        -7.3324
 133   1.0000      -0.268964        -7.3189
 134   1.0000      -0.266888        -7.2624
 135   1.0000      -0.265820        -7.2333
 136   1.0000      -0.265492        -7.2244
 137   1.0000      -0.264487        -7.1971
 138   1.0000      -0.263538        -7.1712
 139   1.0000      -0.262925        -7.1545
 140   1.0000      -0.260621        -7.0918
 141   1.0000      -0.258175        -7.0253
 142   1.0000      -0.257839        -7.0162
 143   1.0000      -0.256287        -6.9739
 144   1.0000      -0.254736        -6.9317
 145   1.0000      -0.253739        -6.9046
 146   1.0000      -0.251742        -6.8503
 147   1.0000      -0.251559        -6.8453
 148   1.0000      -0.250097        -6.8055
 149   1.0000      -0.248597        -6.7647
 150   1.0000      -0.247268        -6.7285
 151   1.0000      -0.247137        -6.7249
 152   1.0000      -0.240731        -6.5506
 153   1.0000      -0.223211        -6.0739
 154   1.0000      -0.211289        -5.7495
 155   1.0000      -0.207720        -5.6523
 156   1.0000      -0.199291        -5.4230
 157   0.0000      -0.186926        -5.0865
 158   0.0000      -0.144996        -3.9455
 159   0.0000      -0.138117        -3.7584
 160   0.0000      -0.129240        -3.5168
 161   0.0000      -0.122243        -3.3264

                 SPIN DOWN ORBITALS
  NO   OCC          E(Eh)            E(eV)
   0   1.0000    -255.639014     -6956.2912
   1   1.0000     -29.859536      -812.5193
   2   1.0000     -25.711682      -699.6504
   3   1.0000     -25.709871      -699.6012
   4   1.0000     -25.703544      -699.4290
   5   1.0000      -4.128435      -112.3404
   6   1.0000      -4.128228      -112.3348
   7   1.0000      -4.124600      -112.2361
   8   1.0000      -4.124543      -112.2345
   9   1.0000      -4.124419      -112.2311
  10   1.0000      -4.124379      -112.2301
  11   1.0000      -4.122027      -112.1660
  12   1.0000      -4.121969      -112.1645
  13   1.0000      -4.119170      -112.0883
  14   1.0000      -4.116231      -112.0083
  15   1.0000      -4.114122      -111.9509
  16   1.0000      -4.111489      -111.8793
  17   1.0000      -4.110271      -111.8462
  18   1.0000      -4.110205      -111.8444
  19   1.0000      -4.108835      -111.8071
  20   1.0000      -3.345315       -91.0307
  21   1.0000      -2.316703       -63.0407
  22   1.0000      -2.316530       -63.0360
  23   1.0000      -2.314616       -62.9839
  24   1.0000      -2.314327       -62.9760
  25   1.0000      -2.314014       -62.9675
  26   1.0000      -2.313833       -62.9626
  27   1.0000      -2.312602       -62.9291
  28   1.0000      -2.312561       -62.9280
  29   1.0000      -2.311474       -62.8984
  30   1.0000      -2.311260       -62.8926
  31   1.0000      -2.310682       -62.8769
  32   1.0000      -2.310315       -62.8669
  33   1.0000      -2.309881       -62.8551
  34   1.0000      -2.309105       -62.8339
  35   1.0000      -2.308640       -62.8213
  36   1.0000      -2.308268       -62.8112
  37   1.0000      -2.308125       -62.8073
  38   1.0000      -2.307846       -62.7997
  39   1.0000      -2.307802       -62.7985
  40   1.0000      -2.307765       -62.7975
  41   1.0000      -2.307528       -62.7910
  42   1.0000      -2.307077       -62.7787
  43   1.0000      -2.306871       -62.7731
  44   1.0000      -2.305542       -62.7370
  45   1.0000      -2.305507       -62.7360
  46   1.0000      -2.304746       -62.7153
  47   1.0000      -2.303568       -62.6833
  48   1.0000      -2.303166       -62.6723
  49   1.0000      -2.301843       -62.6363
  50   1.0000      -2.301156       -62.6176
  51   1.0000      -2.300639       -62.6036
  52   1.0000      -2.300202       -62.5917
  53   1.0000      -2.299291       -62.5669
  54   1.0000      -2.299237       -62.5654
  55   1.0000      -2.297989       -62.5314
  56   1.0000      -2.297870       -62.5282
  57   1.0000      -2.296825       -62.4998
  58   1.0000      -2.296531       -62.4918
  59   1.0000      -2.296051       -62.4787
  60   1.0000      -2.295621       -62.4670
  61   1.0000      -2.294376       -62.4332
  62   1.0000      -2.294119       -62.4262
  63   1.0000      -2.293369       -62.4057
  64   1.0000      -2.292278       -62.3761
  65   1.0000      -2.291582       -62.3571
  66   1.0000      -2.119116       -57.6641
  67   1.0000      -2.116732       -57.5992
  68   1.0000      -2.104149       -57.2568
  69   1.0000      -0.444154       -12.0860
  70   1.0000      -0.399766       -10.8782
  71   1.0000      -0.397893       -10.8272
  72   1.0000      -0.393648       -10.7117
  73   1.0000      -0.382820       -10.4171
  74   1.0000      -0.381132       -10.3711
  75   1.0000      -0.378645       -10.3035
  76   1.0000      -0.375261       -10.2114
  77   1.0000      -0.372457       -10.1351
  78   1.0000      -0.370264       -10.0754
  79   1.0000      -0.369378       -10.0513
  80   1.0000      -0.368034       -10.0147
  81   1.0000      -0.365884        -9.9562
  82   1.0000      -0.363680        -9.8962
  83   1.0000      -0.361032        -9.8242
  84   1.0000      -0.360316        -9.8047
  85   1.0000      -0.357240        -9.7210
  86   1.0000      -0.356670        -9.7055
  87   1.0000      -0.354420        -9.6443
  88   1.0000      -0.353513        -9.6196
  89   1.0000      -0.352340        -9.5877
  90   1.0000      -0.350679        -9.5425
  91   1.0000      -0.349324        -9.5056
  92   1.0000      -0.346967        -9.4415
  93   1.0000      -0.343839        -9.3563
  94   1.0000      -0.339838        -9.2475
  95   1.0000      -0.339482        -9.2378
  96   1.0000      -0.337502        -9.1839
  97   1.0000      -0.336930        -9.1683
  98   1.0000      -0.332319        -9.0428
  99   1.0000      -0.331387        -9.0175
 100   1.0000      -0.327270        -8.9055
 101   1.0000      -0.327128        -8.9016
 102   1.0000      -0.317926        -8.6512
 103   1.0000      -0.316847        -8.6218
 104   1.0000      -0.313509        -8.5310
 105   1.0000      -0.313321        -8.5259
 106   1.0000      -0.308594        -8.3973
 107   1.0000      -0.308412        -8.3923
 108   1.0000      -0.305407        -8.3105
 109   1.0000      -0.304641        -8.2897
 110   1.0000      -0.299211        -8.1419
 111   1.0000      -0.296549        -8.0695
 112   1.0000      -0.295304        -8.0356
 113   1.0000      -0.292766        -7.9666
 114   1.0000      -0.291588        -7.9345
 115   1.0000      -0.289014        -7.8645
 116   1.0000      -0.287738        -7.8297
 117   1.0000      -0.286424        -7.7940
 118   1.0000      -0.285688        -7.7740
 119   1.0000      -0.284395        -7.7388
 120   1.0000      -0.283897        -7.7252
 121   1.0000      -0.282923        -7.6987
 122   1.0000      -0.281544        -7.6612
 123   1.0000      -0.280403        -7.6301
 124   1.0000      -0.279045        -7.5932
 125   1.0000      -0.277736        -7.5576
 126   1.0000      -0.276268        -7.5176
 127   1.0000      -0.275838        -7.5059
 128   1.0000      -0.274412        -7.4671
 129   1.0000      -0.270880        -7.3710
 130   1.0000      -0.269630        -7.3370
 131   1.0000      -0.267145        -7.2694
 132   1.0000      -0.266375        -7.2484
 133   1.0000      -0.265098        -7.2137
 134   1.0000      -0.263950        -7.1824
 135   1.0000      -0.263524        -7.1709
 136   1.0000      -0.261859        -7.1255
 137   1.0000      -0.258914        -7.0454
 138   1.0000      -0.257936        -7.0188
 139   1.0000      -0.256461        -6.9787
 140   1.0000      -0.254897        -6.9361
 141   1.0000      -0.254402        -6.9226
 142   1.0000      -0.252978        -6.8839
 143   1.0000      -0.250978        -6.8295
 144   1.0000      -0.250060        -6.8045
 145   1.0000      -0.248298        -6.7565
 146   1.0000      -0.247774        -6.7423
 147   1.0000      -0.241508        -6.5718
 148   1.0000      -0.229483        -6.2446
 149   1.0000      -0.215671        -5.8687
 150   1.0000      -0.213425        -5.8076
 151   1.0000      -0.207502        -5.6464
 152   1.0000      -0.205995        -5.6054
 153   1.0000      -0.184846        -5.0299
 154   0.0000      -0.155993        -4.2448
 155   0.0000      -0.153836        -4.1861
 156   0.0000      -0.148108        -4.0302
 157   0.0000      -0.142373        -3.8742
 158   0.0000      -0.137044        -3.7292

MULLIKEN ATOMIC CHARGES AND SPIN POPULATIONS
--------------------------------------------
   0 Au:    0.306909   -0.044985
   1 Au:    0.083918    0.038819
   2 Au:    0.219405    0.041342
   3 Au:    0.363184   -0.022136
   4 Au:    0.307493   -0.045036
   5 Au:    0.064481   -0.020100
   6 Au:   -0.187763   -0.095273
   7 Au:    0.296731    0.065010
   8 Au:    0.047990    0.035467
   9 Au:    0.063969   -0.018377
  10 Au:    0.365201   -0.023635
  11 Au:    0.142943    0.052531
  12 Au:    0.390645   -0.055839
  13 Au:    0.143859    0.052793
  14 Au:   -0.187614   -0.095028
  15 Fe:   -2.421351    3.134447
Sum of atomic charges         :   -0.0000000

LOEWDIN ATOMIC CHARGES AND SPIN POPULATIONS
-------------------------------------------
   0 Au:    0.064018   -0.030626
   1 Au:    0.033600   -0.015168
   2 Au:    0.044984    0.016570
   3 Au:    0.090520   -0.032594
   4 Au:    0.064092   -0.030775
   5 Au:    0.046833   -0.002897
   6 Au:   -0.031134   -0.056161
   7 Au:    0.077406   -0.008447
   8 Au:   -0.008625    0.014238
   9 Au:    0.046626   -0.002574
  10 Au:    0.091123   -0.032985
  11 Au:   -0.012465    0.018577
  12 Au:    0.090442   -0.026246
  13 Au:   -0.012709    0.019114
  14 Au:   -0.031358   -0.055973
  15 Fe:   -0.553354    3.225947

  Mayer bond orders larger than 0.100000
B(  0-Au,  1-Au) :   0.2441 B(  0-Au,  2-Au) :   0.1618 B(  0-Au,  3-Au) :   0.2374
B(  0-Au,  5-Au) :   0.1643 B(  0-Au, 15-Fe) :   0.4011 B(  1-Au,  4-Au) :   0.2429
B(  1-Au,  8-Au) :   0.3559 B(  1-Au, 15-Fe) :   0.3638 B(  2-Au,  3-Au) :   0.1303
B(  2-Au,  4-Au) :   0.1613 B(  2-Au,  7-Au) :   0.2386 B(  2-Au, 10-Au) :   0.1312
B(  2-Au, 15-Fe) :   0.4627 B(  3-Au,  5-Au) :   0.1674 B(  3-Au,  6-Au) :   0.2494
B(  3-Au, 15-Fe) :   0.4624 B(  4-Au,  9-Au) :   0.1663 B(  4-Au, 10-Au) :   0.2359
B(  4-Au, 15-Fe) :   0.4009 B(  5-Au,  6-Au) :   0.1580 B(  5-Au,  8-Au) :   0.1629
B(  5-Au, 13-Au) :   0.3620 B(  5-Au, 15-Fe) :   0.5700 B(  6-Au,  7-Au) :   0.2134
B(  6-Au, 12-Au) :   0.2953 B(  6-Au, 13-Au) :   0.3150 B(  6-Au, 14-Au) :   0.2303
B(  6-Au, 15-Fe) :   0.4299 B(  7-Au, 14-Au) :   0.2171 B(  7-Au, 15-Fe) :   0.4131
B(  8-Au,  9-Au) :   0.1617 B(  8-Au, 11-Au) :   0.2595 B(  8-Au, 13-Au) :   0.2619
B(  8-Au, 15-Fe) :   0.2177 B(  9-Au, 10-Au) :   0.1676 B(  9-Au, 11-Au) :   0.3637
B(  9-Au, 14-Au) :   0.1535 B(  9-Au, 15-Fe) :   0.5710 B( 10-Au, 14-Au) :   0.2463
B( 10-Au, 15-Fe) :   0.4639 B( 11-Au, 12-Au) :   0.2239 B( 11-Au, 13-Au) :   0.1693
B( 11-Au, 14-Au) :   0.3161 B( 12-Au, 13-Au) :   0.2259 B( 12-Au, 14-Au) :   0.2967
B( 14-Au, 15-Fe) :   0.4297

FINAL SINGLE POINT ENERGY     -3301.429405447300

DIPOLE MOMENT
-------------
                                X             Y             Z
Electronic contribution:    -18.38600     -18.87731       7.68490
Nuclear contribution   :     18.64718      19.02047      -7.60664
                        -----------------------------------------
Total Dipole Moment    :      0.26118       0.14315       0.07826
                        -----------------------------------------
Magnitude (a.u.)       :      0.30795
Magnitude (Debye)      :      0.78274

Rotational constants in cm-1:     0.001144     0.000883     0.000809
Rotational constants in MHz :    34.307185    26.468717    24.259464

                             ****ORCA TERMINATED NORMALLY****
TOTAL RUN TIME: 0 days 0 hours 17 minutes 16 seconds 341 msec
