                         Program Version 5.0.3 -  RELEASE  -
|  1> !CASSCF def2-TZVP def2-TZVP/C
|  2> !MOREAD RIJCOSX
|  3> %maxcore 6000
|  4> %moinp "pbe.qro"
|  5> %pal nprocs 2 end
|  6>
|  7> %casscf
|  8>  mult 5,3
|  9>  bweight 1,1
| 10>  nroots 5,45
| 11>  nel 6
| 12>  norb 5
| 13> end
| 14>
| 15>
| 16> *xyzfile 0 5 pbe.xyz
| 17>
| 18>
| 19>                          ****END OF INPUT****

CARTESIAN COORDINATES (ANGSTROEM)
---------------------------------
  Au     6.506410    4.936093    9.111252
  Au     5.996160    6.710457    6.967844
  Au     9.321464    4.350180    5.707781
  Au     8.664301    3.400167    8.288803
  Au     7.984312    6.705642    4.995174
  Au    10.889325    5.146047    8.336078
  Au    10.526932    6.924577    6.113651
  Au     8.144321    8.617510    7.016431
  Au     7.554875    7.515984    9.597442
  Au    10.199473    7.830657    8.731268
  Cr     8.458996    5.965908    7.633582

 Total Charge           Charge          ....    0
 Multiplicity           Mult            ....    5
 Number of Electrons    NEL             ....  214
 Basis Dimension        Dim             ....  445

ORBITAL ENERGIES
----------------

  NO   OCC          E(Eh)            E(eV)
   0   2.0000    -220.545543     -6001.3493
   1   2.0000     -26.393992      -718.2170
   2   2.0000     -22.325869      -607.5178
   3   2.0000     -22.325601      -607.5105
   4   2.0000     -22.315991      -607.2490
   5   2.0000      -4.713558      -128.2624
   6   2.0000      -4.713378      -128.2575
   7   2.0000      -4.713215      -128.2531
   8   2.0000      -4.713060      -128.2489
   9   2.0000      -4.706746      -128.0771
  10   2.0000      -4.706487      -128.0700
  11   2.0000      -4.703305      -127.9834
  12   2.0000      -4.703172      -127.9798
  13   2.0000      -4.702966      -127.9742
  14   2.0000      -4.702903      -127.9725
  15   2.0000      -3.442129       -93.6651
  16   2.0000      -2.754813       -74.9623
  17   2.0000      -2.754495       -74.9536
  18   2.0000      -2.752560       -74.9010
  19   2.0000      -2.752323       -74.8945
  20   2.0000      -2.750637       -74.8486
  21   2.0000      -2.750624       -74.8483
  22   2.0000      -2.750315       -74.8399
  23   2.0000      -2.749289       -74.8119
  24   2.0000      -2.747822       -74.7720
  25   2.0000      -2.747730       -74.7695
  26   2.0000      -2.746601       -74.7388
  27   2.0000      -2.746436       -74.7343
  28   2.0000      -2.746374       -74.7326
  29   2.0000      -2.745842       -74.7182
  30   2.0000      -2.745739       -74.7154
  31   2.0000      -2.741893       -74.6107
  32   2.0000      -2.741703       -74.6055
  33   2.0000      -2.741058       -74.5880
  34   2.0000      -2.740929       -74.5845
  35   2.0000      -2.740531       -74.5736
  36   2.0000      -2.740416       -74.5705
  37   2.0000      -2.740109       -74.5622
  38   2.0000      -2.736892       -74.4746
  39   2.0000      -2.736600       -74.4667
  40   2.0000      -2.736370       -74.4604
  41   2.0000      -2.736332       -74.4594
  42   2.0000      -2.735918       -74.4481
  43   2.0000      -2.735845       -74.4461
  44   2.0000      -2.735326       -74.4320
  45   2.0000      -2.735291       -74.4310
  46   2.0000      -2.203320       -59.9554
  47   2.0000      -2.200932       -59.8904
  48   2.0000      -2.195362       -59.7388
  49   2.0000      -0.561748       -15.2859
  50   2.0000      -0.544897       -14.8274
  51   2.0000      -0.542919       -14.7736
  52   2.0000      -0.540360       -14.7039
  53   2.0000      -0.540320       -14.7028
  54   2.0000      -0.533454       -14.5160
  55   2.0000      -0.531527       -14.4636
  56   2.0000      -0.526366       -14.3232
  57   2.0000      -0.526140       -14.3170
  58   2.0000      -0.520376       -14.1601
  59   2.0000      -0.516551       -14.0561
  60   2.0000      -0.515384       -14.0243
  61   2.0000      -0.514798       -14.0084
  62   2.0000      -0.510742       -13.8980
  63   2.0000      -0.509553       -13.8657
  64   2.0000      -0.506684       -13.7876
  65   2.0000      -0.506021       -13.7695
  66   2.0000      -0.503654       -13.7051
  67   2.0000      -0.495887       -13.4938
  68   2.0000      -0.494908       -13.4671
  69   2.0000      -0.491236       -13.3672
  70   2.0000      -0.486496       -13.2382
  71   2.0000      -0.483423       -13.1546
  72   2.0000      -0.476615       -12.9694
  73   2.0000      -0.475813       -12.9475
  74   2.0000      -0.471572       -12.8321
  75   2.0000      -0.470641       -12.8068
  76   2.0000      -0.469462       -12.7747
  77   2.0000      -0.464888       -12.6503
  78   2.0000      -0.454595       -12.3702
  79   2.0000      -0.454423       -12.3655
  80   2.0000      -0.453741       -12.3469
  81   2.0000      -0.453112       -12.3298
  82   2.0000      -0.449476       -12.2309
  83   2.0000      -0.446026       -12.1370
  84   2.0000      -0.444460       -12.0944
  85   2.0000      -0.441727       -12.0200
  86   2.0000      -0.439821       -11.9681
  87   2.0000      -0.438264       -11.9258
  88   2.0000      -0.437658       -11.9093
  89   2.0000      -0.437132       -11.8950
  90   2.0000      -0.433993       -11.8095
  91   2.0000      -0.431508       -11.7419
  92   2.0000      -0.428715       -11.6659
  93   2.0000      -0.420643       -11.4463
  94   2.0000      -0.418349       -11.3839
  95   2.0000      -0.417334       -11.3562
  96   2.0000      -0.415684       -11.3113
  97   2.0000      -0.413930       -11.2636
  98   2.0000      -0.408246       -11.1089
  99   2.0000      -0.405886       -11.0447
 100   2.0000      -0.328288        -8.9332
 101   2.0000      -0.308114        -8.3842
 102   2.0000      -0.301524        -8.2049
 103   2.0000      -0.206624        -5.6225
 104   1.2000      -0.089321        -2.4306
 105   1.2000      -0.144951        -3.9443
 106   1.2000      -0.175973        -4.7885
 107   1.2000      -0.123744        -3.3672
 108   1.2000      -0.131567        -3.5801
 109   0.0000      -0.006133        -0.1669
 110   0.0000      -0.005487        -0.1493
 111   0.0000       0.004698         0.1278
 112   0.0000       0.014107         0.3839
 113   0.0000       0.044135         1.2010

MULLIKEN ATOMIC CHARGES AND SPIN DENSITIES
------------------------------------------
   0 Au:    0.298440    0.064047
   1 Au:    0.443148    0.023470
   2 Au:    0.443908    0.023812
   3 Au:    0.296862    0.064363
   4 Au:    0.344403    0.023976
   5 Au:    0.446120    0.023530
   6 Au:    0.589468    0.037883
   7 Au:    0.589583    0.038107
   8 Au:    0.447117    0.023890
   9 Au:    0.343445    0.023822
  10 Cr:   -4.242494    2.653100
Sum of atomic charges       :    0.0000000

LOEWDIN ATOMIC CHARGES AND SPIN DENSITIES
-----------------------------------------
   0 Au:    0.140430    0.116468
   1 Au:    0.097534    0.059404
   2 Au:    0.098507    0.059999
   3 Au:    0.139952    0.116803
   4 Au:    0.108230    0.042629
   5 Au:    0.097796    0.059416
   6 Au:    0.074875    0.073787
   7 Au:    0.074586    0.074018
   8 Au:    0.098594    0.059958
   9 Au:    0.108706    0.042480
  10 Cr:   -1.039210    2.295038

  Mayer bond orders larger than 0.100000
B(  0-Au,  1-Au) :   0.1616 B(  0-Au,  3-Au) :   0.2261 B(  0-Au,  6-Au) :   0.1218
B(  0-Au,  8-Au) :   0.1623 B(  0-Au, 10-Cr) :   0.4450 B(  1-Au,  4-Au) :   0.2306
B(  1-Au,  5-Au) :   0.1154 B(  1-Au,  7-Au) :   0.1244 B(  1-Au, 10-Cr) :   0.5187
B(  2-Au,  3-Au) :   0.1622 B(  2-Au,  4-Au) :   0.2299 B(  2-Au,  6-Au) :   0.1246
B(  2-Au,  8-Au) :   0.1150 B(  2-Au, 10-Cr) :   0.5150 B(  3-Au,  5-Au) :   0.1618
B(  3-Au,  7-Au) :   0.1216 B(  3-Au, 10-Cr) :   0.4459 B(  4-Au,  6-Au) :   0.1445
B(  4-Au,  7-Au) :   0.1437 B(  4-Au, 10-Cr) :   0.4892 B(  5-Au,  6-Au) :   0.1244
B(  5-Au,  9-Au) :   0.2304 B(  5-Au, 10-Cr) :   0.5169 B(  6-Au,  9-Au) :   0.1430
B(  6-Au, 10-Cr) :   0.3355 B(  7-Au,  8-Au) :   0.1246 B(  7-Au,  9-Au) :   0.1437
B(  7-Au, 10-Cr) :   0.3358 B(  8-Au,  9-Au) :   0.2288 B(  8-Au, 10-Cr) :   0.5135
B(  9-Au, 10-Cr) :   0.4913

FINAL SINGLE POINT ENERGY     -2391.198087740400

DIPOLE MOMENT
-------------
                                X             Y             Z
Electronic contribution:      4.15294       8.59161      -5.09303
Nuclear contribution   :     -4.18585      -8.66186       5.13824
                        -----------------------------------------
Total Dipole Moment    :     -0.03291      -0.07025       0.04520
                        -----------------------------------------
Magnitude (a.u.)       :      0.08979
Magnitude (Debye)      :      0.22822

Rotational constants in cm-1:     0.001898     0.001827     0.001651
Rotational constants in MHz :    56.887518    54.757265    49.497106

                             ****ORCA TERMINATED NORMALLY****
TOTAL RUN TIME: 0 days 1 hours 21 minutes 10 seconds 902 msec
