                         Program Version 5.0.3 -  RELEASE  -
|  1> !SC-NEVPT2 def2-TZVP def2-TZVP/C
|  2> !MOREAD RIJCOSX def2/J
|  3> %maxcore 4000
|  4> %moinp "casscf.gbw"
|  5> %pal nprocs 6 end
|  6>
|  7> %casscf
|  8>  mult 5,3
|  9>  bweight 1,1
| 10>  nroots 5,45
| 11>  nel 6
| 12>  norb 5
| 13>  ptsettings
| 14>   d4tpre 1e-14 # default = 1e-10
| 15>   d3tpre 1e-14
| 16>  end
| 17>  rel
| 18>    dosoc true
| 19>    gtensor true
| 20>  end
| 21> end
| 22>
| 23>
| 24> *xyzfile 0 5 pbe.xyz
| 25>
| 26>
| 27>                          ****END OF INPUT****

CARTESIAN COORDINATES (ANGSTROEM)
---------------------------------
  Au     8.325103    7.335938   11.047545
  Au    10.234949    8.983428   12.175636
  Au     9.476890    4.869828    9.992557
  Au     7.057268    5.823815    9.027238
  Au     9.540791    9.733631    9.646885
  Au     6.978282    8.592269    8.785953
  Au     9.058704    4.846912    7.150139
  Au    11.534566    8.500229    8.015777
  Au     9.103587    9.336517    6.970377
  Au     7.558271    7.054125    6.441805
  Au    11.528910    5.725756    8.154195
  Au    11.301143    7.112513   10.504127
  Fe     9.298813    7.177813    8.556360

 Total Charge           Charge          ....    0
 Multiplicity           Mult            ....    5
 Number of Electrons    NEL             ....  254
 Basis Dimension        Dim             ....  525

ORBITAL ENERGIES
----------------

  NO   OCC          E(Eh)            E(eV)
   0   2.0000    -261.396496     -7112.9603
   1   2.0000     -31.958584      -869.6373
   2   2.0000     -27.439490      -746.6665
   3   2.0000     -27.438299      -746.6341
   4   2.0000     -27.437906      -746.6234
   5   2.0000      -4.738074      -128.9295
   6   2.0000      -4.721153      -128.4691
   7   2.0000      -4.719579      -128.4263
   8   2.0000      -4.718736      -128.4033
   9   2.0000      -4.718708      -128.4026
  10   2.0000      -4.717053      -128.3575
  11   2.0000      -4.715660      -128.3196
  12   2.0000      -4.714756      -128.2950
  13   2.0000      -4.713948      -128.2731
  14   2.0000      -4.706910      -128.0815
  15   2.0000      -4.706298      -128.0649
  16   2.0000      -4.704138      -128.0061
  17   2.0000      -4.192919      -114.0951
  18   2.0000      -2.778783       -75.6145
  19   2.0000      -2.774335       -75.4935
  20   2.0000      -2.773817       -75.4794
  21   2.0000      -2.772698       -75.4490
  22   2.0000      -2.771825       -75.4252
  23   2.0000      -2.771365       -75.4127
  24   2.0000      -2.762216       -75.1637
  25   2.0000      -2.761062       -75.1323
  26   2.0000      -2.758459       -75.0615
  27   2.0000      -2.757268       -75.0291
  28   2.0000      -2.756289       -75.0024
  29   2.0000      -2.756026       -74.9953
  30   2.0000      -2.755658       -74.9853
  31   2.0000      -2.755221       -74.9734
  32   2.0000      -2.754809       -74.9622
  33   2.0000      -2.754486       -74.9534
  34   2.0000      -2.754400       -74.9510
  35   2.0000      -2.753618       -74.9297
  36   2.0000      -2.753332       -74.9220
  37   2.0000      -2.752704       -74.9049
  38   2.0000      -2.751798       -74.8802
  39   2.0000      -2.751473       -74.8714
  40   2.0000      -2.751133       -74.8621
  41   2.0000      -2.750576       -74.8470
  42   2.0000      -2.749849       -74.8272
  43   2.0000      -2.749052       -74.8055
  44   2.0000      -2.747853       -74.7729
  45   2.0000      -2.747746       -74.7700
  46   2.0000      -2.747405       -74.7607
  47   2.0000      -2.745515       -74.7093
  48   2.0000      -2.744913       -74.6929
  49   2.0000      -2.743355       -74.6505
  50   2.0000      -2.742087       -74.6160
  51   2.0000      -2.740920       -74.5842
  52   2.0000      -2.740315       -74.5678
  53   2.0000      -2.739715       -74.5514
  54   2.0000      -2.737733       -74.4975
  55   2.0000      -2.736533       -74.4649
  56   2.0000      -2.736298       -74.4584
  57   2.0000      -0.598052       -16.2738
  58   2.0000      -0.561876       -15.2894
  59   2.0000      -0.558957       -15.2100
  60   2.0000      -0.557331       -15.1657
  61   2.0000      -0.555670       -15.1206
  62   2.0000      -0.549985       -14.9658
  63   2.0000      -0.546980       -14.8841
  64   2.0000      -0.545950       -14.8560
  65   2.0000      -0.545415       -14.8415
  66   2.0000      -0.544516       -14.8170
  67   2.0000      -0.542577       -14.7643
  68   2.0000      -0.542074       -14.7506
  69   2.0000      -0.538095       -14.6423
  70   2.0000      -0.534379       -14.5412
  71   2.0000      -0.531027       -14.4500
  72   2.0000      -0.528235       -14.3740
  73   2.0000      -0.525907       -14.3106
  74   2.0000      -0.522564       -14.2197
  75   2.0000      -0.515251       -14.0207
  76   2.0000      -0.514960       -14.0128
  77   2.0000      -0.512673       -13.9506
  78   2.0000      -0.506054       -13.7704
  79   2.0000      -0.505800       -13.7635
  80   2.0000      -0.502415       -13.6714
  81   2.0000      -0.502049       -13.6615
  82   2.0000      -0.498067       -13.5531
  83   2.0000      -0.495320       -13.4784
  84   2.0000      -0.492713       -13.4074
  85   2.0000      -0.489418       -13.3177
  86   2.0000      -0.480915       -13.0864
  87   2.0000      -0.477597       -12.9961
  88   2.0000      -0.473633       -12.8882
  89   2.0000      -0.472605       -12.8602
  90   2.0000      -0.472004       -12.8439
  91   2.0000      -0.466825       -12.7029
  92   2.0000      -0.465495       -12.6668
  93   2.0000      -0.464744       -12.6463
  94   2.0000      -0.462163       -12.5761
  95   2.0000      -0.459343       -12.4994
  96   2.0000      -0.454270       -12.3613
  97   2.0000      -0.453677       -12.3452
  98   2.0000      -0.452353       -12.3091
  99   2.0000      -0.449709       -12.2372
 100   2.0000      -0.448057       -12.1923
 101   2.0000      -0.446635       -12.1536
 102   2.0000      -0.444782       -12.1031
 103   2.0000      -0.444101       -12.0846
 104   2.0000      -0.440485       -11.9862
 105   2.0000      -0.438998       -11.9457
 106   2.0000      -0.436207       -11.8698
 107   2.0000      -0.434253       -11.8166
 108   2.0000      -0.429150       -11.6778
 109   2.0000      -0.427936       -11.6447
 110   2.0000      -0.425201       -11.5703
 111   2.0000      -0.425098       -11.5675
 112   2.0000      -0.423341       -11.5197
 113   2.0000      -0.421078       -11.4581
 114   2.0000      -0.418289       -11.3822
 115   2.0000      -0.413627       -11.2554
 116   2.0000      -0.407212       -11.0808
 117   2.0000      -0.394536       -10.7359
 118   2.0000      -0.363276        -9.8852
 119   2.0000      -0.346334        -9.4242
 120   2.0000      -0.326973        -8.8974
 121   2.0000      -0.249762        -6.7964
 122   2.0000      -0.221274        -6.0212
 123   2.0000      -0.210987        -5.7412
 124   1.2000      -0.268544        -7.3074
 125   1.2000      -0.265853        -7.2342
 126   1.2000      -0.261916        -7.1271
 127   1.2000      -0.274521        -7.4701
 128   1.2000      -0.271373        -7.3844
 129   0.0000      -0.051882        -1.4118
 130   0.0000      -0.030322        -0.8251
 131   0.0000      -0.018690        -0.5086
 132   0.0000       0.010731         0.2920
 133   0.0000       0.024462         0.6656

MULLIKEN ATOMIC CHARGES AND SPIN DENSITIES
------------------------------------------
   0 Au:   -0.020985    0.006880
   1 Au:    0.369232    0.003529
   2 Au:    0.265461    0.008201
   3 Au:    0.221858    0.010296
   4 Au:   -0.030131    0.008133
   5 Au:    0.247537    0.008448
   6 Au:    0.176861    0.008941
   7 Au:    0.116260    0.012431
   8 Au:    0.431748    0.008277
   9 Au:    0.171647    0.008838
  10 Au:    0.415094    0.008505
  11 Au:   -0.038913    0.008159
  12 Fe:   -2.325670    2.899362
Sum of atomic charges       :    0.0000000

LOEWDIN ATOMIC CHARGES AND SPIN DENSITIES
-----------------------------------------
   0 Au:    0.039863    0.009899
   1 Au:    0.174490    0.003979
   2 Au:    0.035953    0.010318
   3 Au:   -0.019995    0.011904
   4 Au:   -0.078267    0.010588
   5 Au:    0.031163    0.010495
   6 Au:    0.029703    0.011239
   7 Au:    0.023245    0.014136
   8 Au:    0.067799    0.011655
   9 Au:    0.032459    0.011071
  10 Au:    0.060935    0.011853
  11 Au:   -0.075478    0.010547
  12 Fe:   -0.321870    2.872316

  Mayer bond orders larger than 0.100000
B(  0-Au,  1-Au) :   0.3333 B(  0-Au,  2-Au) :   0.1080 B(  0-Au,  3-Au) :   0.3278
B(  0-Au,  4-Au) :   0.2021 B(  0-Au,  5-Au) :   0.1008 B(  0-Au, 11-Au) :   0.1982
B(  0-Au, 12-Fe) :   0.3149 B(  1-Au,  4-Au) :   0.3270 B(  1-Au, 11-Au) :   0.3271
B(  2-Au,  3-Au) :   0.1364 B(  2-Au,  6-Au) :   0.2103 B(  2-Au, 10-Au) :   0.2157
B(  2-Au, 12-Fe) :   0.4584 B(  3-Au,  5-Au) :   0.1275 B(  3-Au,  6-Au) :   0.1288
B(  3-Au,  9-Au) :   0.1377 B(  3-Au, 12-Fe) :   0.4707 B(  4-Au,  5-Au) :   0.1000
B(  4-Au,  7-Au) :   0.1369 B(  4-Au,  8-Au) :   0.3395 B(  4-Au, 11-Au) :   0.1749
B(  4-Au, 12-Fe) :   0.4252 B(  5-Au,  8-Au) :   0.2092 B(  5-Au,  9-Au) :   0.2140
B(  5-Au, 12-Fe) :   0.4654 B(  6-Au,  9-Au) :   0.2145 B(  6-Au, 10-Au) :   0.1076
B(  6-Au, 12-Fe) :   0.4466 B(  7-Au,  8-Au) :   0.1212 B(  7-Au, 10-Au) :   0.1092
B(  7-Au, 11-Au) :   0.1398 B(  7-Au, 12-Fe) :   0.5828 B(  8-Au, 12-Fe) :   0.3354
B(  9-Au, 12-Fe) :   0.4444 B( 10-Au, 11-Au) :   0.3432 B( 10-Au, 12-Fe) :   0.3420
B( 11-Au, 12-Fe) :   0.4239

FINAL SINGLE POINT ENERGY     -2886.128503954081

DIPOLE MOMENT
-------------
                                X             Y             Z
Electronic contribution:      0.36449       5.82880      17.12099
Nuclear contribution   :     -0.35741      -5.64834     -16.60349
                        -----------------------------------------
Total Dipole Moment    :      0.00709       0.18046       0.51750
                        -----------------------------------------
Magnitude (a.u.)       :      0.54811
Magnitude (Debye)      :      1.39318

Rotational constants in cm-1:     0.001561     0.001300     0.001202
Rotational constants in MHz :    46.799173    38.977309    36.032870

                             ****ORCA TERMINATED NORMALLY****
TOTAL RUN TIME: 0 days 2 hours 18 minutes 39 seconds 636 msec
