                         Program Version 5.0.3 -  RELEASE  -
|  1> !RI-B2PLYP def2-TZVP def2-TZVP/C
|  2> !RIJCOSX VERYSLOWCONV
|  3>
|  4> %scf
|  5>   AutoTRAHIter 200
|  6>   maxiter 400
|  7> end
|  8>
|  9>
| 10> %pal nprocs 6 end
| 11>
| 12> *xyzfile 0 6 pbe.xyz
| 13>
| 14> $new_job
| 15>
| 16> !RI-B2PLYP def2-TZVP def2-TZVP/C
| 17> !RIJCOSX VERYSLOWCONV
| 18>
| 19> %scf
| 20>   AutoTRAHIter 200
| 21>   maxiter 400
| 22> end
| 23>
| 24>
| 25> %pal nprocs 6 end
| 26>
| 27> *xyzfile 0 4 pbe.xyz
| 28>
| 29>
| 30>
| 31>
| 32>
| 33>                          ****END OF INPUT****
 Total Charge           Charge          ....    0
 Multiplicity           Mult            ....    6
 Number of Electrons    NEL             ....  291
MP2 TOTAL ENERGY:    -3049.077340372 Eh
FINAL SINGLE POINT ENERGY     -3049.077340372058

CARTESIAN COORDINATES (ANGSTROEM)
---------------------------------
  Au     9.530715    5.694890    5.281152
  Au    10.518164    5.416299    9.281785
  Au     8.754077    4.249989    7.503100
  Au     8.013763    5.806430   10.195361
  Au     9.977513    8.014137    9.915276
  Au     8.850638    8.337943    5.323241
  Au     6.247108    5.185222    8.178305
  Au     4.790025    7.246430    6.941548
  Au     5.595540    7.011065   10.216113
  Au     4.831743    9.335973    8.826054
  Au     6.903198    6.134351    5.680381
  Au     6.737488    9.181141    6.820619
  Au     7.440581    8.978228    9.690303
  Au     9.259749    9.685796    7.764773
  Mn     8.583790    6.974194    7.737390

 Multiplicity           Mult            ....    4
 Number of Electrons    NEL             ....  291
 Basis Dimension        Dim             ....  605

ORBITAL ENERGIES
----------------
                 SPIN UP ORBITALS
  NO   OCC          E(Eh)            E(eV)
   0   1.0000    -237.640545     -6466.5280
   1   1.0000     -28.140804      -765.7502
   2   1.0000     -24.059578      -654.6944
   3   1.0000     -24.058238      -654.6579
   4   1.0000     -24.058115      -654.6546
   5   1.0000      -4.408284      -119.9555
   6   1.0000      -4.406210      -119.8991
   7   1.0000      -4.405944      -119.8918
   8   1.0000      -4.401532      -119.7718
   9   1.0000      -4.400219      -119.7360
  10   1.0000      -4.398509      -119.6895
  11   1.0000      -4.398290      -119.6836
  12   1.0000      -4.397247      -119.6552
  13   1.0000      -4.397194      -119.6537
  14   1.0000      -4.397172      -119.6531
  15   1.0000      -4.397031      -119.6493
  16   1.0000      -4.388193      -119.4088
  17   1.0000      -4.386339      -119.3583
  18   1.0000      -4.386335      -119.3582
  19   1.0000      -3.619284       -98.4857
  20   1.0000      -2.529306       -68.8259
  21   1.0000      -2.526460       -68.7485
  22   1.0000      -2.526219       -68.7419
  23   1.0000      -2.525990       -68.7357
  24   1.0000      -2.525691       -68.7275
  25   1.0000      -2.524815       -68.7037
  26   1.0000      -2.524638       -68.6989
  27   1.0000      -2.522109       -68.6301
  28   1.0000      -2.521395       -68.6106
  29   1.0000      -2.520800       -68.5944
  30   1.0000      -2.520425       -68.5843
  31   1.0000      -2.518836       -68.5410
  32   1.0000      -2.518500       -68.5319
  33   1.0000      -2.518114       -68.5214
  34   1.0000      -2.518041       -68.5194
  35   1.0000      -2.517774       -68.5121
  36   1.0000      -2.517609       -68.5076
  37   1.0000      -2.516933       -68.4892
  38   1.0000      -2.516549       -68.4788
  39   1.0000      -2.515676       -68.4550
  40   1.0000      -2.515199       -68.4420
  41   1.0000      -2.514831       -68.4320
  42   1.0000      -2.514537       -68.4240
  43   1.0000      -2.513645       -68.3998
  44   1.0000      -2.513144       -68.3861
  45   1.0000      -2.512638       -68.3723
  46   1.0000      -2.512300       -68.3632
  47   1.0000      -2.512086       -68.3573
  48   1.0000      -2.511684       -68.3464
  49   1.0000      -2.511568       -68.3432
  50   1.0000      -2.511509       -68.3416
  51   1.0000      -2.511309       -68.3362
  52   1.0000      -2.510984       -68.3273
  53   1.0000      -2.506990       -68.2187
  54   1.0000      -2.506929       -68.2170
  55   1.0000      -2.504657       -68.1552
  56   1.0000      -2.504368       -68.1473
  57   1.0000      -2.503500       -68.1237
  58   1.0000      -2.502742       -68.1031
  59   1.0000      -2.502344       -68.0922
  60   1.0000      -2.500928       -68.0537
  61   1.0000      -2.500829       -68.0510
  62   1.0000      -2.422339       -65.9152
  63   1.0000      -2.420408       -65.8626
  64   1.0000      -2.420343       -65.8609
  65   1.0000      -0.526717       -14.3327
  66   1.0000      -0.523300       -14.2397
  67   1.0000      -0.521489       -14.1904
  68   1.0000      -0.516963       -14.0673
  69   1.0000      -0.516782       -14.0624
  70   1.0000      -0.490595       -13.3498
  71   1.0000      -0.469812       -12.7842
  72   1.0000      -0.469518       -12.7762
  73   1.0000      -0.467263       -12.7149
  74   1.0000      -0.467232       -12.7140
  75   1.0000      -0.461493       -12.5579
  76   1.0000      -0.458725       -12.4825
  77   1.0000      -0.456949       -12.4342
  78   1.0000      -0.456638       -12.4257
  79   1.0000      -0.453599       -12.3431
  80   1.0000      -0.451483       -12.2855
  81   1.0000      -0.449870       -12.2416
  82   1.0000      -0.447971       -12.1899
  83   1.0000      -0.445956       -12.1351
  84   1.0000      -0.445738       -12.1292
  85   1.0000      -0.442452       -12.0397
  86   1.0000      -0.440454       -11.9853
  87   1.0000      -0.438008       -11.9188
  88   1.0000      -0.436782       -11.8855
  89   1.0000      -0.434693       -11.8286
  90   1.0000      -0.433759       -11.8032
  91   1.0000      -0.431785       -11.7495
  92   1.0000      -0.428124       -11.6498
  93   1.0000      -0.426777       -11.6132
  94   1.0000      -0.425193       -11.5701
  95   1.0000      -0.423538       -11.5251
  96   1.0000      -0.418959       -11.4005
  97   1.0000      -0.418375       -11.3846
  98   1.0000      -0.418006       -11.3745
  99   1.0000      -0.411565       -11.1993
 100   1.0000      -0.409441       -11.1415
 101   1.0000      -0.402162       -10.9434
 102   1.0000      -0.395112       -10.7516
 103   1.0000      -0.391103       -10.6424
 104   1.0000      -0.388532       -10.5725
 105   1.0000      -0.385297       -10.4845
 106   1.0000      -0.384222       -10.4552
 107   1.0000      -0.382655       -10.4126
 108   1.0000      -0.381975       -10.3941
 109   1.0000      -0.381880       -10.3915
 110   1.0000      -0.378063       -10.2876
 111   1.0000      -0.376636       -10.2488
 112   1.0000      -0.375425       -10.2158
 113   1.0000      -0.375075       -10.2063
 114   1.0000      -0.371129       -10.0989
 115   1.0000      -0.369673       -10.0593
 116   1.0000      -0.368306       -10.0221
 117   1.0000      -0.368206       -10.0194
 118   1.0000      -0.366045        -9.9606
 119   1.0000      -0.365791        -9.9537
 120   1.0000      -0.364505        -9.9187
 121   1.0000      -0.363771        -9.8987
 122   1.0000      -0.361032        -9.8242
 123   1.0000      -0.359896        -9.7933
 124   1.0000      -0.358470        -9.7545
 125   1.0000      -0.357365        -9.7244
 126   1.0000      -0.354123        -9.6362
 127   1.0000      -0.353853        -9.6288
 128   1.0000      -0.352831        -9.6010
 129   1.0000      -0.351397        -9.5620
 130   1.0000      -0.347751        -9.4628
 131   1.0000      -0.346072        -9.4171
 132   1.0000      -0.344528        -9.3751
 133   1.0000      -0.343281        -9.3412
 134   1.0000      -0.341197        -9.2844
 135   1.0000      -0.337256        -9.1772
 136   1.0000      -0.335194        -9.1211
 137   1.0000      -0.333390        -9.0720
 138   1.0000      -0.326963        -8.8971
 139   1.0000      -0.320805        -8.7295
 140   1.0000      -0.319979        -8.7071
 141   1.0000      -0.315308        -8.5800
 142   1.0000      -0.309242        -8.4149
 143   1.0000      -0.304771        -8.2932
 144   1.0000      -0.237964        -6.4753
 145   1.0000      -0.233993        -6.3673
 146   1.0000      -0.218534        -5.9466
 147   0.0000      -0.138026        -3.7559
 148   0.0000      -0.099970        -2.7203
 149   0.0000      -0.078424        -2.1340
 150   0.0000      -0.074184        -2.0186
 151   0.0000      -0.065476        -1.7817

                 SPIN DOWN ORBITALS
  NO   OCC          E(Eh)            E(eV)
   0   1.0000    -237.638548     -6466.4737
   1   1.0000     -28.038977      -762.9794
   2   1.0000     -23.965496      -652.1343
   3   1.0000     -23.965131      -652.1244
   4   1.0000     -23.964869      -652.1172
   5   1.0000      -4.408999      -119.9750
   6   1.0000      -4.406812      -119.9155
   7   1.0000      -4.406531      -119.9078
   8   1.0000      -4.401722      -119.7769
   9   1.0000      -4.400883      -119.7541
  10   1.0000      -4.398388      -119.6862
  11   1.0000      -4.398178      -119.6805
  12   1.0000      -4.397963      -119.6747
  13   1.0000      -4.397886      -119.6726
  14   1.0000      -4.397823      -119.6709
  15   1.0000      -4.397766      -119.6693
  16   1.0000      -4.389194      -119.4360
  17   1.0000      -4.386980      -119.3758
  18   1.0000      -4.386978      -119.3757
  19   1.0000      -3.332923       -90.6935
  20   1.0000      -2.528345       -68.7998
  21   1.0000      -2.527265       -68.7704
  22   1.0000      -2.526861       -68.7594
  23   1.0000      -2.526324       -68.7448
  24   1.0000      -2.525757       -68.7293
  25   1.0000      -2.524681       -68.7001
  26   1.0000      -2.524434       -68.6933
  27   1.0000      -2.522336       -68.6363
  28   1.0000      -2.521586       -68.6158
  29   1.0000      -2.520881       -68.5967
  30   1.0000      -2.520584       -68.5886
  31   1.0000      -2.518939       -68.5438
  32   1.0000      -2.518600       -68.5346
  33   1.0000      -2.518096       -68.5209
  34   1.0000      -2.517870       -68.5147
  35   1.0000      -2.517601       -68.5074
  36   1.0000      -2.517312       -68.4996
  37   1.0000      -2.517130       -68.4946
  38   1.0000      -2.516546       -68.4787
  39   1.0000      -2.516118       -68.4671
  40   1.0000      -2.515737       -68.4567
  41   1.0000      -2.515593       -68.4528
  42   1.0000      -2.515112       -68.4397
  43   1.0000      -2.513526       -68.3965
  44   1.0000      -2.513438       -68.3941
  45   1.0000      -2.513219       -68.3882
  46   1.0000      -2.512506       -68.3688
  47   1.0000      -2.512241       -68.3615
  48   1.0000      -2.511778       -68.3490
  49   1.0000      -2.511633       -68.3450
  50   1.0000      -2.511405       -68.3388
  51   1.0000      -2.511211       -68.3335
  52   1.0000      -2.511020       -68.3283
  53   1.0000      -2.507783       -68.2402
  54   1.0000      -2.507036       -68.2199
  55   1.0000      -2.506302       -68.1999
  56   1.0000      -2.504692       -68.1561
  57   1.0000      -2.504621       -68.1542
  58   1.0000      -2.503513       -68.1240
  59   1.0000      -2.503414       -68.1214
  60   1.0000      -2.501691       -68.0745
  61   1.0000      -2.501663       -68.0737
  62   1.0000      -2.093509       -56.9673
  63   1.0000      -2.093160       -56.9578
  64   1.0000      -2.092920       -56.9513
  65   1.0000      -0.502297       -13.6682
  66   1.0000      -0.475732       -12.9453
  67   1.0000      -0.475223       -12.9315
  68   1.0000      -0.472601       -12.8601
  69   1.0000      -0.472491       -12.8571
  70   1.0000      -0.465518       -12.6674
  71   1.0000      -0.465353       -12.6629
  72   1.0000      -0.462503       -12.5853
  73   1.0000      -0.461688       -12.5632
  74   1.0000      -0.460871       -12.5409
  75   1.0000      -0.458622       -12.4797
  76   1.0000      -0.454240       -12.3605
  77   1.0000      -0.452588       -12.3155
  78   1.0000      -0.452479       -12.3126
  79   1.0000      -0.450216       -12.2510
  80   1.0000      -0.447574       -12.1791
  81   1.0000      -0.447169       -12.1681
  82   1.0000      -0.444756       -12.1024
  83   1.0000      -0.443637       -12.0720
  84   1.0000      -0.441632       -12.0174
  85   1.0000      -0.439243       -11.9524
  86   1.0000      -0.435273       -11.8444
  87   1.0000      -0.430871       -11.7246
  88   1.0000      -0.430728       -11.7207
  89   1.0000      -0.427883       -11.6433
  90   1.0000      -0.425103       -11.5676
  91   1.0000      -0.424166       -11.5422
  92   1.0000      -0.421255       -11.4629
  93   1.0000      -0.420741       -11.4489
  94   1.0000      -0.414513       -11.2795
  95   1.0000      -0.412039       -11.2122
  96   1.0000      -0.406720       -11.0674
  97   1.0000      -0.403756       -10.9868
  98   1.0000      -0.395853       -10.7717
  99   1.0000      -0.394450       -10.7335
 100   1.0000      -0.392250       -10.6737
 101   1.0000      -0.388542       -10.5728
 102   1.0000      -0.387285       -10.5386
 103   1.0000      -0.385663       -10.4944
 104   1.0000      -0.383580       -10.4377
 105   1.0000      -0.383343       -10.4313
 106   1.0000      -0.379862       -10.3366
 107   1.0000      -0.378728       -10.3057
 108   1.0000      -0.377583       -10.2746
 109   1.0000      -0.373590       -10.1659
 110   1.0000      -0.372702       -10.1417
 111   1.0000      -0.371135       -10.0991
 112   1.0000      -0.370940       -10.0938
 113   1.0000      -0.369235       -10.0474
 114   1.0000      -0.367209        -9.9923
 115   1.0000      -0.365282        -9.9398
 116   1.0000      -0.365071        -9.9341
 117   1.0000      -0.364209        -9.9106
 118   1.0000      -0.361387        -9.8338
 119   1.0000      -0.360733        -9.8160
 120   1.0000      -0.359408        -9.7800
 121   1.0000      -0.356103        -9.6900
 122   1.0000      -0.355471        -9.6729
 123   1.0000      -0.354585        -9.6487
 124   1.0000      -0.354521        -9.6470
 125   1.0000      -0.349183        -9.5017
 126   1.0000      -0.348676        -9.4880
 127   1.0000      -0.347051        -9.4437
 128   1.0000      -0.346038        -9.4162
 129   1.0000      -0.343902        -9.3581
 130   1.0000      -0.338685        -9.2161
 131   1.0000      -0.337323        -9.1790
 132   1.0000      -0.336871        -9.1667
 133   1.0000      -0.329301        -8.9607
 134   1.0000      -0.325043        -8.8449
 135   1.0000      -0.324532        -8.8310
 136   1.0000      -0.323951        -8.8151
 137   1.0000      -0.318636        -8.6705
 138   1.0000      -0.311590        -8.4788
 139   1.0000      -0.244612        -6.6562
 140   1.0000      -0.243586        -6.6283
 141   1.0000      -0.234370        -6.3775
 142   1.0000      -0.229740        -6.2515
 143   1.0000      -0.184537        -5.0215
 144   0.0000      -0.080027        -2.1776
 145   0.0000      -0.079381        -2.1601
 146   0.0000      -0.073283        -1.9941
 147   0.0000      -0.056821        -1.5462
 148   0.0000      -0.055683        -1.5152

MULLIKEN ATOMIC CHARGES AND SPIN POPULATIONS
--------------------------------------------
   0 Au:    0.256277   -0.073660
   1 Au:    0.258002   -0.075535
   2 Au:    0.222566   -0.270578
   3 Au:   -0.067067   -0.066452
   4 Au:    0.259740   -0.117141
   5 Au:    0.264615   -0.124256
   6 Au:   -0.010867   -0.148406
   7 Au:    0.207171   -0.107677
   8 Au:    0.207307   -0.112184
   9 Au:    0.348526   -0.040220
  10 Au:   -0.069520   -0.064138
  11 Au:   -0.338876   -0.043040
  12 Au:   -0.333957   -0.045621
  13 Au:    0.323100   -0.308277
  14 Mn:   -1.527018    4.597184
Sum of atomic charges         :    0.0000000

LOEWDIN ATOMIC CHARGES AND SPIN POPULATIONS
-------------------------------------------
   0 Au:    0.083843   -0.123369
   1 Au:    0.083859   -0.123303
   2 Au:    0.035658   -0.146196
   3 Au:   -0.033281   -0.079427
   4 Au:    0.034531   -0.140401
   5 Au:    0.035598   -0.142303
   6 Au:   -0.024707   -0.124156
   7 Au:   -0.000534   -0.102625
   8 Au:   -0.000297   -0.104772
   9 Au:    0.084787   -0.074373
  10 Au:   -0.034099   -0.078480
  11 Au:   -0.087035   -0.063079
  12 Au:   -0.086414   -0.063843
  13 Au:    0.046652   -0.200809
  14 Mn:   -0.138561    4.567136

  Mayer bond orders larger than 0.100000
B(  0-Au,  2-Au) :   0.2201 B(  0-Au,  5-Au) :   0.1929 B(  0-Au, 10-Au) :   0.3399
B(  0-Au, 14-Mn) :   0.3234 B(  1-Au,  2-Au) :   0.2203 B(  1-Au,  3-Au) :   0.3379
B(  1-Au,  4-Au) :   0.1934 B(  1-Au, 14-Mn) :   0.3235 B(  2-Au,  6-Au) :   0.2116
B(  2-Au, 14-Mn) :   0.4294 B(  3-Au,  6-Au) :   0.2487 B(  3-Au,  8-Au) :   0.3761
B(  3-Au, 12-Au) :   0.1150 B(  3-Au, 14-Mn) :   0.4551 B(  4-Au, 12-Au) :   0.3492
B(  4-Au, 13-Au) :   0.1870 B(  4-Au, 14-Mn) :   0.4169 B(  5-Au, 11-Au) :   0.3484
B(  5-Au, 13-Au) :   0.1874 B(  5-Au, 14-Mn) :   0.4163 B(  6-Au,  7-Au) :   0.2497
B(  6-Au,  8-Au) :   0.2495 B(  6-Au, 10-Au) :   0.2476 B(  6-Au, 14-Mn) :   0.2716
B(  7-Au,  8-Au) :   0.1026 B(  7-Au,  9-Au) :   0.2179 B(  7-Au, 10-Au) :   0.3787
B(  7-Au, 11-Au) :   0.2701 B(  8-Au,  9-Au) :   0.2180 B(  8-Au, 12-Au) :   0.2698
B(  9-Au, 11-Au) :   0.3102 B(  9-Au, 12-Au) :   0.3100 B( 10-Au, 11-Au) :   0.1150
B( 10-Au, 14-Mn) :   0.4530 B( 11-Au, 12-Au) :   0.2353 B( 11-Au, 13-Au) :   0.1832
B( 11-Au, 14-Mn) :   0.3432 B( 12-Au, 13-Au) :   0.1805 B( 12-Au, 14-Mn) :   0.3408
B( 13-Au, 14-Mn) :   0.3896

MP2 TOTAL ENERGY:    -3049.048829296 Eh
FINAL SINGLE POINT ENERGY     -3049.048829295634

DIPOLE MOMENT
-------------
                                X             Y             Z
Electronic contribution:    -32.79606       6.59684       8.47715
Nuclear contribution   :     33.17091      -6.88089      -8.58960
                        -----------------------------------------
Total Dipole Moment    :      0.37486      -0.28404      -0.11244
                        -----------------------------------------
Magnitude (a.u.)       :      0.48357
Magnitude (Debye)      :      1.22915

Rotational constants in cm-1:     0.001137     0.000970     0.000906
Rotational constants in MHz :    34.088371    29.065900    27.165973

                             ****ORCA TERMINATED NORMALLY****
TOTAL RUN TIME: 0 days 1 hours 1 minutes 26 seconds 865 msec
