                         Program Version 5.0.3 -  RELEASE  -
|  1> !PBE def2-TZVP VERYSLOWCONV
|  2> !KDIIS
|  3>
|  4> %scf
|  5>   AutoTRAHIter 200
|  6>   maxiter 400
|  7> end
|  8>
|  9>
| 10> %pal nprocs 6 end
| 11>
| 12> *xyzfile 0 6 pbe.xyz
| 13>
| 14> $new_job
| 15>
| 16> !PBE def2-TZVP VERYSLOWCONV
| 17> !KDIIS
| 18>
| 19> %scf
| 20>   AutoTRAHIter 200
| 21>   maxiter 400
| 22> end
| 23>
| 24>
| 25> %pal nprocs 6 end
| 26>
| 27> *xyzfile 0 4 pbe.xyz
| 28>
| 29>
| 30>
| 31>
| 32>
| 33>                          ****END OF INPUT****
 Total Charge           Charge          ....    0
 Multiplicity           Mult            ....    6
 Number of Electrons    NEL             ....  291
FINAL SINGLE POINT ENERGY     -3052.338171771811

CARTESIAN COORDINATES (ANGSTROEM)
---------------------------------
  Au     9.530715    5.694890    5.281152
  Au    10.518164    5.416299    9.281785
  Au     8.754077    4.249989    7.503100
  Au     8.013763    5.806430   10.195361
  Au     9.977513    8.014137    9.915276
  Au     8.850638    8.337943    5.323241
  Au     6.247108    5.185222    8.178305
  Au     4.790025    7.246430    6.941548
  Au     5.595540    7.011065   10.216113
  Au     4.831743    9.335973    8.826054
  Au     6.903198    6.134351    5.680381
  Au     6.737488    9.181141    6.820619
  Au     7.440581    8.978228    9.690303
  Au     9.259749    9.685796    7.764773
  Mn     8.583790    6.974194    7.737390

 Multiplicity           Mult            ....    4
 Number of Electrons    NEL             ....  291
 Basis Dimension        Dim             ....  605

ORBITAL ENERGIES
----------------
                 SPIN UP ORBITALS
  NO   OCC          E(Eh)            E(eV)
   0   1.0000    -234.214431     -6373.2987
   1   1.0000     -26.907222      -732.1827
   2   1.0000     -23.057251      -627.4197
   3   1.0000     -23.054955      -627.3572
   4   1.0000     -23.054771      -627.3522
   5   1.0000      -4.035844      -109.8209
   6   1.0000      -4.035726      -109.8177
   7   1.0000      -4.035115      -109.8010
   8   1.0000      -4.031678      -109.7075
   9   1.0000      -4.030056      -109.6634
  10   1.0000      -4.027935      -109.6057
  11   1.0000      -4.027805      -109.6021
  12   1.0000      -4.027595      -109.5964
  13   1.0000      -4.027352      -109.5898
  14   1.0000      -4.025835      -109.5486
  15   1.0000      -4.025721      -109.5454
  16   1.0000      -4.021305      -109.4253
  17   1.0000      -4.017889      -109.3323
  18   1.0000      -4.017852      -109.3313
  19   1.0000      -3.117571       -84.8334
  20   1.0000      -2.252772       -61.3011
  21   1.0000      -2.252573       -61.2956
  22   1.0000      -2.250798       -61.2473
  23   1.0000      -2.249694       -61.2173
  24   1.0000      -2.249396       -61.2092
  25   1.0000      -2.248357       -61.1809
  26   1.0000      -2.247309       -61.1524
  27   1.0000      -2.246895       -61.1411
  28   1.0000      -2.246766       -61.1376
  29   1.0000      -2.245335       -61.0987
  30   1.0000      -2.245028       -61.0903
  31   1.0000      -2.244408       -61.0734
  32   1.0000      -2.244167       -61.0669
  33   1.0000      -2.243532       -61.0496
  34   1.0000      -2.243004       -61.0352
  35   1.0000      -2.242869       -61.0316
  36   1.0000      -2.242666       -61.0260
  37   1.0000      -2.242343       -61.0173
  38   1.0000      -2.242036       -61.0089
  39   1.0000      -2.241675       -60.9991
  40   1.0000      -2.240671       -60.9718
  41   1.0000      -2.240278       -60.9611
  42   1.0000      -2.240112       -60.9565
  43   1.0000      -2.238889       -60.9233
  44   1.0000      -2.238659       -60.9170
  45   1.0000      -2.238459       -60.9116
  46   1.0000      -2.237966       -60.8982
  47   1.0000      -2.237846       -60.8949
  48   1.0000      -2.237566       -60.8873
  49   1.0000      -2.236548       -60.8596
  50   1.0000      -2.236290       -60.8525
  51   1.0000      -2.235475       -60.8304
  52   1.0000      -2.235410       -60.8286
  53   1.0000      -2.235239       -60.8239
  54   1.0000      -2.235094       -60.8200
  55   1.0000      -2.234073       -60.7922
  56   1.0000      -2.233399       -60.7739
  57   1.0000      -2.232123       -60.7392
  58   1.0000      -2.230498       -60.6949
  59   1.0000      -2.230439       -60.6933
  60   1.0000      -2.226998       -60.5997
  61   1.0000      -2.226874       -60.5963
  62   1.0000      -2.023497       -55.0621
  63   1.0000      -2.018380       -54.9229
  64   1.0000      -2.018228       -54.9188
  65   1.0000      -0.428992       -11.6735
  66   1.0000      -0.391296       -10.6477
  67   1.0000      -0.389063       -10.5870
  68   1.0000      -0.382072       -10.3967
  69   1.0000      -0.381597       -10.3838
  70   1.0000      -0.374635       -10.1943
  71   1.0000      -0.364710        -9.9243
  72   1.0000      -0.364131        -9.9085
  73   1.0000      -0.362212        -9.8563
  74   1.0000      -0.360165        -9.8006
  75   1.0000      -0.360118        -9.7993
  76   1.0000      -0.354101        -9.6356
  77   1.0000      -0.350322        -9.5328
  78   1.0000      -0.349634        -9.5140
  79   1.0000      -0.347100        -9.4451
  80   1.0000      -0.346485        -9.4283
  81   1.0000      -0.345231        -9.3942
  82   1.0000      -0.344203        -9.3662
  83   1.0000      -0.342229        -9.3125
  84   1.0000      -0.341572        -9.2946
  85   1.0000      -0.336252        -9.1499
  86   1.0000      -0.335833        -9.1385
  87   1.0000      -0.332057        -9.0357
  88   1.0000      -0.328957        -8.9514
  89   1.0000      -0.326414        -8.8822
  90   1.0000      -0.325940        -8.8693
  91   1.0000      -0.324037        -8.8175
  92   1.0000      -0.323849        -8.8124
  93   1.0000      -0.321855        -8.7581
  94   1.0000      -0.318054        -8.6547
  95   1.0000      -0.315403        -8.5826
  96   1.0000      -0.313968        -8.5435
  97   1.0000      -0.311868        -8.4864
  98   1.0000      -0.304855        -8.2955
  99   1.0000      -0.304463        -8.2849
 100   1.0000      -0.299823        -8.1586
 101   1.0000      -0.296823        -8.0770
 102   1.0000      -0.294941        -8.0258
 103   1.0000      -0.289298        -7.8722
 104   1.0000      -0.288737        -7.8569
 105   1.0000      -0.286278        -7.7900
 106   1.0000      -0.285811        -7.7773
 107   1.0000      -0.284708        -7.7473
 108   1.0000      -0.282815        -7.6958
 109   1.0000      -0.282269        -7.6809
 110   1.0000      -0.278419        -7.5762
 111   1.0000      -0.276527        -7.5247
 112   1.0000      -0.276179        -7.5152
 113   1.0000      -0.274731        -7.4758
 114   1.0000      -0.274107        -7.4588
 115   1.0000      -0.271438        -7.3862
 116   1.0000      -0.271108        -7.3772
 117   1.0000      -0.270213        -7.3529
 118   1.0000      -0.268580        -7.3084
 119   1.0000      -0.266912        -7.2630
 120   1.0000      -0.266677        -7.2567
 121   1.0000      -0.265368        -7.2210
 122   1.0000      -0.264704        -7.2030
 123   1.0000      -0.263070        -7.1585
 124   1.0000      -0.260405        -7.0860
 125   1.0000      -0.259496        -7.0613
 126   1.0000      -0.258952        -7.0464
 127   1.0000      -0.257213        -6.9991
 128   1.0000      -0.255243        -6.9455
 129   1.0000      -0.255093        -6.9414
 130   1.0000      -0.253751        -6.9049
 131   1.0000      -0.252249        -6.8640
 132   1.0000      -0.251724        -6.8498
 133   1.0000      -0.250341        -6.8121
 134   1.0000      -0.249957        -6.8017
 135   1.0000      -0.249003        -6.7757
 136   1.0000      -0.248473        -6.7613
 137   1.0000      -0.246129        -6.6975
 138   1.0000      -0.246092        -6.6965
 139   1.0000      -0.244453        -6.6519
 140   1.0000      -0.243320        -6.6211
 141   1.0000      -0.240853        -6.5539
 142   1.0000      -0.237161        -6.4535
 143   1.0000      -0.229362        -6.2413
 144   1.0000      -0.213528        -5.8104
 145   1.0000      -0.210547        -5.7293
 146   1.0000      -0.198897        -5.4123
 147   0.0000      -0.197488        -5.3739
 148   0.0000      -0.167048        -4.5456
 149   0.0000      -0.139293        -3.7904
 150   0.0000      -0.138652        -3.7729
 151   0.0000      -0.132805        -3.6138

                 SPIN DOWN ORBITALS
  NO   OCC          E(Eh)            E(eV)
   0   1.0000    -234.213738     -6373.2798
   1   1.0000     -26.840243      -730.3602
   2   1.0000     -23.005554      -626.0129
   3   1.0000     -23.004547      -625.9855
   4   1.0000     -23.004336      -625.9798
   5   1.0000      -4.035999      -109.8251
   6   1.0000      -4.035826      -109.8204
   7   1.0000      -4.035196      -109.8033
   8   1.0000      -4.031661      -109.7071
   9   1.0000      -4.030234      -109.6682
  10   1.0000      -4.028175      -109.6122
  11   1.0000      -4.028054      -109.6089
  12   1.0000      -4.027474      -109.5931
  13   1.0000      -4.027177      -109.5851
  14   1.0000      -4.026242      -109.5596
  15   1.0000      -4.026107      -109.5559
  16   1.0000      -4.022319      -109.4529
  17   1.0000      -4.018494      -109.3488
  18   1.0000      -4.018489      -109.3486
  19   1.0000      -2.952907       -80.3527
  20   1.0000      -2.253266       -61.3145
  21   1.0000      -2.252983       -61.3068
  22   1.0000      -2.250432       -61.2374
  23   1.0000      -2.249530       -61.2128
  24   1.0000      -2.249267       -61.2057
  25   1.0000      -2.248580       -61.1870
  26   1.0000      -2.247630       -61.1611
  27   1.0000      -2.247145       -61.1479
  28   1.0000      -2.246949       -61.1426
  29   1.0000      -2.245281       -61.0972
  30   1.0000      -2.245160       -61.0939
  31   1.0000      -2.244572       -61.0779
  32   1.0000      -2.244434       -61.0742
  33   1.0000      -2.243812       -61.0572
  34   1.0000      -2.243257       -61.0421
  35   1.0000      -2.243026       -61.0358
  36   1.0000      -2.242450       -61.0202
  37   1.0000      -2.242314       -61.0165
  38   1.0000      -2.242056       -61.0094
  39   1.0000      -2.241642       -60.9982
  40   1.0000      -2.240920       -60.9785
  41   1.0000      -2.240578       -60.9692
  42   1.0000      -2.240347       -60.9630
  43   1.0000      -2.239449       -60.9385
  44   1.0000      -2.239011       -60.9266
  45   1.0000      -2.238393       -60.9098
  46   1.0000      -2.238314       -60.9076
  47   1.0000      -2.238119       -60.9023
  48   1.0000      -2.237562       -60.8871
  49   1.0000      -2.236705       -60.8638
  50   1.0000      -2.236401       -60.8556
  51   1.0000      -2.235949       -60.8433
  52   1.0000      -2.235716       -60.8369
  53   1.0000      -2.235333       -60.8265
  54   1.0000      -2.235278       -60.8250
  55   1.0000      -2.235239       -60.8239
  56   1.0000      -2.233795       -60.7846
  57   1.0000      -2.233214       -60.7688
  58   1.0000      -2.231364       -60.7185
  59   1.0000      -2.231352       -60.7182
  60   1.0000      -2.227726       -60.6195
  61   1.0000      -2.227602       -60.6161
  62   1.0000      -1.859896       -50.6103
  63   1.0000      -1.858371       -50.5689
  64   1.0000      -1.856699       -50.5233
  65   1.0000      -0.424066       -11.5394
  66   1.0000      -0.391498       -10.6532
  67   1.0000      -0.389729       -10.6051
  68   1.0000      -0.379203       -10.3186
  69   1.0000      -0.378201       -10.2914
  70   1.0000      -0.370601       -10.0846
  71   1.0000      -0.364265        -9.9121
  72   1.0000      -0.362957        -9.8766
  73   1.0000      -0.360774        -9.8172
  74   1.0000      -0.358505        -9.7554
  75   1.0000      -0.358167        -9.7462
  76   1.0000      -0.352523        -9.5926
  77   1.0000      -0.350767        -9.5448
  78   1.0000      -0.350021        -9.5246
  79   1.0000      -0.346387        -9.4257
  80   1.0000      -0.345396        -9.3987
  81   1.0000      -0.344856        -9.3840
  82   1.0000      -0.343245        -9.3402
  83   1.0000      -0.342632        -9.3235
  84   1.0000      -0.341861        -9.3025
  85   1.0000      -0.336607        -9.1595
  86   1.0000      -0.335296        -9.1239
  87   1.0000      -0.332184        -9.0392
  88   1.0000      -0.329010        -8.9528
  89   1.0000      -0.325844        -8.8667
  90   1.0000      -0.325177        -8.8485
  91   1.0000      -0.323947        -8.8150
  92   1.0000      -0.322004        -8.7622
  93   1.0000      -0.320689        -8.7264
  94   1.0000      -0.317510        -8.6399
  95   1.0000      -0.314222        -8.5504
  96   1.0000      -0.308898        -8.4055
  97   1.0000      -0.306449        -8.3389
  98   1.0000      -0.300364        -8.1733
  99   1.0000      -0.297840        -8.1046
 100   1.0000      -0.296368        -8.0646
 101   1.0000      -0.294274        -8.0076
 102   1.0000      -0.291272        -7.9259
 103   1.0000      -0.289631        -7.8813
 104   1.0000      -0.288095        -7.8395
 105   1.0000      -0.287181        -7.8146
 106   1.0000      -0.285870        -7.7789
 107   1.0000      -0.282768        -7.6945
 108   1.0000      -0.282128        -7.6771
 109   1.0000      -0.279576        -7.6076
 110   1.0000      -0.278804        -7.5866
 111   1.0000      -0.276824        -7.5328
 112   1.0000      -0.275094        -7.4857
 113   1.0000      -0.273504        -7.4424
 114   1.0000      -0.271496        -7.3878
 115   1.0000      -0.270775        -7.3682
 116   1.0000      -0.270277        -7.3546
 117   1.0000      -0.269329        -7.3288
 118   1.0000      -0.268426        -7.3043
 119   1.0000      -0.267290        -7.2733
 120   1.0000      -0.266144        -7.2421
 121   1.0000      -0.264509        -7.1977
 122   1.0000      -0.262891        -7.1536
 123   1.0000      -0.260626        -7.0920
 124   1.0000      -0.260105        -7.0778
 125   1.0000      -0.259296        -7.0558
 126   1.0000      -0.258890        -7.0447
 127   1.0000      -0.255419        -6.9503
 128   1.0000      -0.255153        -6.9431
 129   1.0000      -0.252931        -6.8826
 130   1.0000      -0.251245        -6.8367
 131   1.0000      -0.250726        -6.8226
 132   1.0000      -0.248410        -6.7596
 133   1.0000      -0.247826        -6.7437
 134   1.0000      -0.246853        -6.7172
 135   1.0000      -0.244720        -6.6592
 136   1.0000      -0.242298        -6.5933
 137   1.0000      -0.239398        -6.5144
 138   1.0000      -0.232472        -6.3259
 139   1.0000      -0.217752        -5.9253
 140   1.0000      -0.216456        -5.8901
 141   1.0000      -0.212552        -5.7838
 142   1.0000      -0.210447        -5.7265
 143   1.0000      -0.175039        -4.7631
 144   0.0000      -0.151241        -4.1155
 145   0.0000      -0.148697        -4.0462
 146   0.0000      -0.142207        -3.8697
 147   0.0000      -0.134227        -3.6525
 148   0.0000      -0.133967        -3.6454

MULLIKEN ATOMIC CHARGES AND SPIN POPULATIONS
--------------------------------------------
   0 Au:    0.303054   -0.061838
   1 Au:    0.299812   -0.057861
   2 Au:    0.253907   -0.191996
   3 Au:   -0.022223   -0.050315
   4 Au:    0.296383   -0.065683
   5 Au:    0.287137   -0.049519
   6 Au:   -0.014674   -0.092268
   7 Au:    0.207823   -0.088191
   8 Au:    0.206498   -0.087729
   9 Au:    0.390255   -0.048586
  10 Au:   -0.017878   -0.060134
  11 Au:   -0.322610   -0.058330
  12 Au:   -0.323835   -0.051482
  13 Au:    0.355305   -0.224017
  14 Mn:   -1.898954    4.187947
Sum of atomic charges         :    0.0000000

LOEWDIN ATOMIC CHARGES AND SPIN POPULATIONS
-------------------------------------------
   0 Au:    0.091399   -0.100605
   1 Au:    0.092271   -0.101151
   2 Au:    0.049437   -0.108807
   3 Au:   -0.007026   -0.050457
   4 Au:    0.055652   -0.093530
   5 Au:    0.055021   -0.089288
   6 Au:   -0.005600   -0.079942
   7 Au:    0.007632   -0.088193
   8 Au:    0.007471   -0.088229
   9 Au:    0.077169   -0.081370
  10 Au:   -0.006846   -0.054024
  11 Au:   -0.069158   -0.044541
  12 Au:   -0.068996   -0.043608
  13 Au:    0.074425   -0.153238
  14 Mn:   -0.352849    4.176982

  Mayer bond orders larger than 0.100000
B(  0-Au,  2-Au) :   0.2580 B(  0-Au,  5-Au) :   0.2375 B(  0-Au, 10-Au) :   0.3566
B(  0-Au, 14-Mn) :   0.3298 B(  1-Au,  2-Au) :   0.2509 B(  1-Au,  3-Au) :   0.3590
B(  1-Au,  4-Au) :   0.2398 B(  1-Au, 14-Mn) :   0.3323 B(  2-Au,  6-Au) :   0.2696
B(  2-Au, 14-Mn) :   0.4786 B(  3-Au,  4-Au) :   0.1006 B(  3-Au,  6-Au) :   0.2504
B(  3-Au,  8-Au) :   0.4139 B(  3-Au, 12-Au) :   0.1302 B(  3-Au, 14-Mn) :   0.4851
B(  4-Au, 12-Au) :   0.3583 B(  4-Au, 13-Au) :   0.2101 B(  4-Au, 14-Mn) :   0.4438
B(  5-Au, 10-Au) :   0.1024 B(  5-Au, 11-Au) :   0.3605 B(  5-Au, 13-Au) :   0.2037
B(  5-Au, 14-Mn) :   0.4480 B(  6-Au,  7-Au) :   0.2790 B(  6-Au,  8-Au) :   0.2779
B(  6-Au, 10-Au) :   0.2558 B(  6-Au, 14-Mn) :   0.3244 B(  7-Au,  8-Au) :   0.1196
B(  7-Au,  9-Au) :   0.2548 B(  7-Au, 10-Au) :   0.4100 B(  7-Au, 11-Au) :   0.3114
B(  8-Au,  9-Au) :   0.2546 B(  8-Au, 12-Au) :   0.3064 B(  9-Au, 11-Au) :   0.3314
B(  9-Au, 12-Au) :   0.3309 B( 10-Au, 11-Au) :   0.1326 B( 10-Au, 14-Mn) :   0.4801
B( 11-Au, 12-Au) :   0.2488 B( 11-Au, 13-Au) :   0.2200 B( 11-Au, 14-Mn) :   0.3689
B( 12-Au, 13-Au) :   0.2259 B( 12-Au, 14-Mn) :   0.3681 B( 13-Au, 14-Mn) :   0.4250

FINAL SINGLE POINT ENERGY     -3052.351010280340

DIPOLE MOMENT
-------------
                                X             Y             Z
Electronic contribution:    -32.90856       6.65709       8.50881
Nuclear contribution   :     33.17091      -6.88089      -8.58960
                        -----------------------------------------
Total Dipole Moment    :      0.26235      -0.22379      -0.08079
                        -----------------------------------------
Magnitude (a.u.)       :      0.35417
Magnitude (Debye)      :      0.90024

Rotational constants in cm-1:     0.001137     0.000970     0.000906
Rotational constants in MHz :    34.088371    29.065900    27.165973

                             ****ORCA TERMINATED NORMALLY****
TOTAL RUN TIME: 0 days 0 hours 15 minutes 43 seconds 74 msec
