                         Program Version 5.0.3 -  RELEASE  -
|  1> !R2SCAN def2-TZVP VERYSLOWCONV
|  2> !KDIIS
|  3> %scf
|  4>   AutoTRAHIter 200
|  5>   maxiter 400
|  6> end
|  7>
|  8> %pal nprocs 6 end
|  9>
| 10> *xyzfile 0 6 pbe.xyz
| 11>
| 12> $new_job
| 13>
| 14> !R2SCAN def2-TZVP VERYSLOWCONV
| 15> !KDIIS
| 16> %scf
| 17>   AutoTRAHIter 200
| 18>   maxiter 400
| 19> end
| 20>
| 21>
| 22> %pal nprocs 6 end
| 23>
| 24> *xyzfile 0 4 pbe.xyz
| 25>
| 26>
| 27>
| 28>
| 29>
| 30>                          ****END OF INPUT****
 Total Charge           Charge          ....    0
 Multiplicity           Mult            ....    6
 Number of Electrons    NEL             ....  291
FINAL SINGLE POINT ENERGY     -3052.838434002540

CARTESIAN COORDINATES (ANGSTROEM)
---------------------------------
  Au     9.530715    5.694890    5.281152
  Au    10.518164    5.416299    9.281785
  Au     8.754077    4.249989    7.503100
  Au     8.013763    5.806430   10.195361
  Au     9.977513    8.014137    9.915276
  Au     8.850638    8.337943    5.323241
  Au     6.247108    5.185222    8.178305
  Au     4.790025    7.246430    6.941548
  Au     5.595540    7.011065   10.216113
  Au     4.831743    9.335973    8.826054
  Au     6.903198    6.134351    5.680381
  Au     6.737488    9.181141    6.820619
  Au     7.440581    8.978228    9.690303
  Au     9.259749    9.685796    7.764773
  Mn     8.583790    6.974194    7.737390

 Multiplicity           Mult            ....    4
 Number of Electrons    NEL             ....  291
 Basis Dimension        Dim             ....  605

ORBITAL ENERGIES
----------------
                 SPIN UP ORBITALS
  NO   OCC          E(Eh)            E(eV)
   0   1.0000    -235.058261     -6396.2605
   1   1.0000     -27.235145      -741.1060
   2   1.0000     -23.283271      -633.5700
   3   1.0000     -23.281063      -633.5099
   4   1.0000     -23.280863      -633.5045
   5   1.0000      -4.126981      -112.3008
   6   1.0000      -4.126856      -112.2974
   7   1.0000      -4.126217      -112.2801
   8   1.0000      -4.122513      -112.1793
   9   1.0000      -4.120525      -112.1252
  10   1.0000      -4.118837      -112.0793
  11   1.0000      -4.118657      -112.0744
  12   1.0000      -4.118459      -112.0690
  13   1.0000      -4.118409      -112.0676
  14   1.0000      -4.117345      -112.0387
  15   1.0000      -4.117266      -112.0365
  16   1.0000      -4.111585      -111.8819
  17   1.0000      -4.108173      -111.7891
  18   1.0000      -4.108113      -111.7874
  19   1.0000      -3.258376       -88.6649
  20   1.0000      -2.316374       -63.0317
  21   1.0000      -2.316162       -63.0260
  22   1.0000      -2.314908       -62.9919
  23   1.0000      -2.313817       -62.9622
  24   1.0000      -2.313496       -62.9534
  25   1.0000      -2.312358       -62.9225
  26   1.0000      -2.310999       -62.8855
  27   1.0000      -2.310807       -62.8803
  28   1.0000      -2.310384       -62.8687
  29   1.0000      -2.309256       -62.8381
  30   1.0000      -2.308900       -62.8284
  31   1.0000      -2.307965       -62.8029
  32   1.0000      -2.307811       -62.7987
  33   1.0000      -2.307219       -62.7826
  34   1.0000      -2.306708       -62.7687
  35   1.0000      -2.306505       -62.7632
  36   1.0000      -2.306300       -62.7576
  37   1.0000      -2.306177       -62.7543
  38   1.0000      -2.306059       -62.7511
  39   1.0000      -2.305450       -62.7345
  40   1.0000      -2.304356       -62.7047
  41   1.0000      -2.304191       -62.7002
  42   1.0000      -2.304161       -62.6994
  43   1.0000      -2.302303       -62.6488
  44   1.0000      -2.302275       -62.6481
  45   1.0000      -2.302104       -62.6434
  46   1.0000      -2.301874       -62.6372
  47   1.0000      -2.301752       -62.6338
  48   1.0000      -2.301185       -62.6184
  49   1.0000      -2.300463       -62.5988
  50   1.0000      -2.300190       -62.5913
  51   1.0000      -2.299739       -62.5791
  52   1.0000      -2.299689       -62.5777
  53   1.0000      -2.298368       -62.5418
  54   1.0000      -2.298130       -62.5353
  55   1.0000      -2.296965       -62.5036
  56   1.0000      -2.296298       -62.4854
  57   1.0000      -2.295029       -62.4509
  58   1.0000      -2.293416       -62.4070
  59   1.0000      -2.293325       -62.4046
  60   1.0000      -2.290245       -62.3207
  61   1.0000      -2.290112       -62.3171
  62   1.0000      -2.118091       -57.6362
  63   1.0000      -2.113244       -57.5043
  64   1.0000      -2.113038       -57.4987
  65   1.0000      -0.434875       -11.8336
  66   1.0000      -0.397422       -10.8144
  67   1.0000      -0.395508       -10.7623
  68   1.0000      -0.392171       -10.6715
  69   1.0000      -0.389755       -10.6058
  70   1.0000      -0.385754       -10.4969
  71   1.0000      -0.375001       -10.2043
  72   1.0000      -0.373396       -10.1606
  73   1.0000      -0.371462       -10.1080
  74   1.0000      -0.371116       -10.0986
  75   1.0000      -0.370039       -10.0693
  76   1.0000      -0.363486        -9.8910
  77   1.0000      -0.360061        -9.7977
  78   1.0000      -0.359221        -9.7749
  79   1.0000      -0.357359        -9.7242
  80   1.0000      -0.357049        -9.7158
  81   1.0000      -0.354458        -9.6453
  82   1.0000      -0.353686        -9.6243
  83   1.0000      -0.351494        -9.5646
  84   1.0000      -0.351049        -9.5525
  85   1.0000      -0.345985        -9.4147
  86   1.0000      -0.345148        -9.3919
  87   1.0000      -0.341551        -9.2941
  88   1.0000      -0.338819        -9.2197
  89   1.0000      -0.337999        -9.1974
  90   1.0000      -0.336567        -9.1585
  91   1.0000      -0.333464        -9.0740
  92   1.0000      -0.333352        -9.0710
  93   1.0000      -0.331345        -9.0164
  94   1.0000      -0.327563        -8.9134
  95   1.0000      -0.325993        -8.8707
  96   1.0000      -0.323383        -8.7997
  97   1.0000      -0.322125        -8.7655
  98   1.0000      -0.318113        -8.6563
  99   1.0000      -0.313962        -8.5433
 100   1.0000      -0.312932        -8.5153
 101   1.0000      -0.308715        -8.4006
 102   1.0000      -0.303643        -8.2626
 103   1.0000      -0.298711        -8.1283
 104   1.0000      -0.298240        -8.1155
 105   1.0000      -0.295484        -8.0405
 106   1.0000      -0.294728        -8.0200
 107   1.0000      -0.293945        -7.9987
 108   1.0000      -0.292217        -7.9516
 109   1.0000      -0.291232        -7.9248
 110   1.0000      -0.288330        -7.8459
 111   1.0000      -0.287242        -7.8163
 112   1.0000      -0.286123        -7.7858
 113   1.0000      -0.285191        -7.7604
 114   1.0000      -0.282962        -7.6998
 115   1.0000      -0.281264        -7.6536
 116   1.0000      -0.280378        -7.6295
 117   1.0000      -0.278685        -7.5834
 118   1.0000      -0.277039        -7.5386
 119   1.0000      -0.275809        -7.5052
 120   1.0000      -0.275591        -7.4992
 121   1.0000      -0.274771        -7.4769
 122   1.0000      -0.274410        -7.4671
 123   1.0000      -0.272872        -7.4252
 124   1.0000      -0.270483        -7.3602
 125   1.0000      -0.267774        -7.2865
 126   1.0000      -0.267254        -7.2724
 127   1.0000      -0.267139        -7.2692
 128   1.0000      -0.266377        -7.2485
 129   1.0000      -0.264935        -7.2093
 130   1.0000      -0.263662        -7.1746
 131   1.0000      -0.263528        -7.1710
 132   1.0000      -0.260972        -7.1014
 133   1.0000      -0.259619        -7.0646
 134   1.0000      -0.258295        -7.0286
 135   1.0000      -0.256254        -6.9730
 136   1.0000      -0.255816        -6.9611
 137   1.0000      -0.253667        -6.9026
 138   1.0000      -0.252374        -6.8674
 139   1.0000      -0.252166        -6.8618
 140   1.0000      -0.249911        -6.8004
 141   1.0000      -0.247749        -6.7416
 142   1.0000      -0.243505        -6.6261
 143   1.0000      -0.235699        -6.4137
 144   1.0000      -0.215578        -5.8662
 145   1.0000      -0.213058        -5.7976
 146   1.0000      -0.201133        -5.4731
 147   0.0000      -0.196675        -5.3518
 148   0.0000      -0.163294        -4.4435
 149   0.0000      -0.135416        -3.6848
 150   0.0000      -0.133753        -3.6396
 151   0.0000      -0.128603        -3.4995

                 SPIN DOWN ORBITALS
  NO   OCC          E(Eh)            E(eV)
   0   1.0000    -235.057285     -6396.2339
   1   1.0000     -27.145683      -738.6716
   2   1.0000     -23.213551      -631.6728
   3   1.0000     -23.213044      -631.6590
   4   1.0000     -23.212836      -631.6534
   5   1.0000      -4.127358      -112.3111
   6   1.0000      -4.127160      -112.3057
   7   1.0000      -4.126567      -112.2896
   8   1.0000      -4.122674      -112.1837
   9   1.0000      -4.120928      -112.1361
  10   1.0000      -4.119117      -112.0869
  11   1.0000      -4.119036      -112.0847
  12   1.0000      -4.118714      -112.0759
  13   1.0000      -4.118405      -112.0675
  14   1.0000      -4.117956      -112.0553
  15   1.0000      -4.117855      -112.0525
  16   1.0000      -4.112734      -111.9132
  17   1.0000      -4.108862      -111.8078
  18   1.0000      -4.108848      -111.8074
  19   1.0000      -3.044585       -82.8474
  20   1.0000      -2.317127       -63.0522
  21   1.0000      -2.316820       -63.0439
  22   1.0000      -2.314583       -62.9830
  23   1.0000      -2.313792       -62.9615
  24   1.0000      -2.313387       -62.9505
  25   1.0000      -2.312602       -62.9291
  26   1.0000      -2.311422       -62.8970
  27   1.0000      -2.311401       -62.8964
  28   1.0000      -2.310943       -62.8840
  29   1.0000      -2.309332       -62.8401
  30   1.0000      -2.309011       -62.8314
  31   1.0000      -2.308244       -62.8105
  32   1.0000      -2.308060       -62.8055
  33   1.0000      -2.307697       -62.7956
  34   1.0000      -2.307105       -62.7795
  35   1.0000      -2.306706       -62.7687
  36   1.0000      -2.306367       -62.7594
  37   1.0000      -2.306244       -62.7561
  38   1.0000      -2.306146       -62.7534
  39   1.0000      -2.305574       -62.7379
  40   1.0000      -2.304881       -62.7190
  41   1.0000      -2.304662       -62.7130
  42   1.0000      -2.304486       -62.7082
  43   1.0000      -2.302896       -62.6650
  44   1.0000      -2.302641       -62.6580
  45   1.0000      -2.302225       -62.6467
  46   1.0000      -2.302189       -62.6457
  47   1.0000      -2.302004       -62.6407
  48   1.0000      -2.301311       -62.6219
  49   1.0000      -2.300543       -62.6010
  50   1.0000      -2.300212       -62.5919
  51   1.0000      -2.299789       -62.5804
  52   1.0000      -2.299742       -62.5792
  53   1.0000      -2.299144       -62.5629
  54   1.0000      -2.298856       -62.5550
  55   1.0000      -2.298401       -62.5427
  56   1.0000      -2.296803       -62.4992
  57   1.0000      -2.296210       -62.4831
  58   1.0000      -2.294383       -62.4333
  59   1.0000      -2.294356       -62.4326
  60   1.0000      -2.291017       -62.3417
  61   1.0000      -2.290889       -62.3383
  62   1.0000      -1.903136       -51.7870
  63   1.0000      -1.902117       -51.7592
  64   1.0000      -1.901393       -51.7395
  65   1.0000      -0.430471       -11.7137
  66   1.0000      -0.398353       -10.8397
  67   1.0000      -0.396795       -10.7973
  68   1.0000      -0.386883       -10.5276
  69   1.0000      -0.386804       -10.5255
  70   1.0000      -0.379151       -10.3172
  71   1.0000      -0.373210       -10.1556
  72   1.0000      -0.372118       -10.1258
  73   1.0000      -0.369761       -10.0617
  74   1.0000      -0.367821       -10.0089
  75   1.0000      -0.367739       -10.0067
  76   1.0000      -0.361880        -9.8473
  77   1.0000      -0.360531        -9.8105
  78   1.0000      -0.359340        -9.7782
  79   1.0000      -0.356176        -9.6920
  80   1.0000      -0.354964        -9.6591
  81   1.0000      -0.353992        -9.6326
  82   1.0000      -0.352666        -9.5965
  83   1.0000      -0.351899        -9.5756
  84   1.0000      -0.351595        -9.5674
  85   1.0000      -0.346226        -9.4213
  86   1.0000      -0.344745        -9.3810
  87   1.0000      -0.341642        -9.2966
  88   1.0000      -0.338776        -9.2186
  89   1.0000      -0.335326        -9.1247
  90   1.0000      -0.334909        -9.1133
  91   1.0000      -0.333552        -9.0764
  92   1.0000      -0.330923        -9.0049
  93   1.0000      -0.330188        -8.9849
  94   1.0000      -0.326285        -8.8787
  95   1.0000      -0.322920        -8.7871
  96   1.0000      -0.318071        -8.6552
  97   1.0000      -0.315446        -8.5837
  98   1.0000      -0.309072        -8.4103
  99   1.0000      -0.306333        -8.3357
 100   1.0000      -0.305295        -8.3075
 101   1.0000      -0.302397        -8.2286
 102   1.0000      -0.300222        -8.1694
 103   1.0000      -0.298752        -8.1294
 104   1.0000      -0.296886        -8.0787
 105   1.0000      -0.295874        -8.0511
 106   1.0000      -0.294872        -8.0239
 107   1.0000      -0.291342        -7.9278
 108   1.0000      -0.291225        -7.9246
 109   1.0000      -0.287888        -7.8338
 110   1.0000      -0.287369        -7.8197
 111   1.0000      -0.285306        -7.7636
 112   1.0000      -0.283633        -7.7181
 113   1.0000      -0.281994        -7.6734
 114   1.0000      -0.280376        -7.6294
 115   1.0000      -0.279207        -7.5976
 116   1.0000      -0.278758        -7.5854
 117   1.0000      -0.277543        -7.5523
 118   1.0000      -0.276973        -7.5368
 119   1.0000      -0.275627        -7.5002
 120   1.0000      -0.274350        -7.4654
 121   1.0000      -0.272585        -7.4174
 122   1.0000      -0.271066        -7.3761
 123   1.0000      -0.268686        -7.3113
 124   1.0000      -0.268334        -7.3018
 125   1.0000      -0.267195        -7.2707
 126   1.0000      -0.266828        -7.2608
 127   1.0000      -0.263592        -7.1727
 128   1.0000      -0.262914        -7.1543
 129   1.0000      -0.260760        -7.0956
 130   1.0000      -0.258663        -7.0386
 131   1.0000      -0.258263        -7.0277
 132   1.0000      -0.255628        -6.9560
 133   1.0000      -0.255336        -6.9481
 134   1.0000      -0.254067        -6.9135
 135   1.0000      -0.251738        -6.8501
 136   1.0000      -0.249485        -6.7888
 137   1.0000      -0.246159        -6.6983
 138   1.0000      -0.238510        -6.4902
 139   1.0000      -0.220252        -5.9933
 140   1.0000      -0.219568        -5.9748
 141   1.0000      -0.214523        -5.8375
 142   1.0000      -0.212035        -5.7698
 143   1.0000      -0.174607        -4.7513
 144   0.0000      -0.143466        -3.9039
 145   0.0000      -0.143157        -3.8955
 146   0.0000      -0.131174        -3.5694
 147   0.0000      -0.124310        -3.3826
 148   0.0000      -0.119885        -3.2622

MULLIKEN ATOMIC CHARGES AND SPIN POPULATIONS
--------------------------------------------
   0 Au:    0.273412   -0.074799
   1 Au:    0.268783   -0.069041
   2 Au:    0.232764   -0.219098
   3 Au:   -0.035692   -0.054823
   4 Au:    0.270441   -0.080929
   5 Au:    0.257779   -0.059830
   6 Au:   -0.002847   -0.111209
   7 Au:    0.195166   -0.097809
   8 Au:    0.193297   -0.096404
   9 Au:    0.353459   -0.051349
  10 Au:   -0.029596   -0.066723
  11 Au:   -0.306329   -0.063228
  12 Au:   -0.309218   -0.054944
  13 Au:    0.335064   -0.259353
  14 Mn:   -1.696482    4.359540
Sum of atomic charges         :   -0.0000000

LOEWDIN ATOMIC CHARGES AND SPIN POPULATIONS
-------------------------------------------
   0 Au:    0.085379   -0.111688
   1 Au:    0.086065   -0.111958
   2 Au:    0.044352   -0.122051
   3 Au:   -0.012778   -0.060838
   4 Au:    0.048619   -0.107481
   5 Au:    0.047478   -0.102248
   6 Au:   -0.009803   -0.095760
   7 Au:    0.004088   -0.095517
   8 Au:    0.003747   -0.095357
   9 Au:    0.073207   -0.085266
  10 Au:   -0.012348   -0.064773
  11 Au:   -0.072426   -0.054536
  12 Au:   -0.072360   -0.053495
  13 Au:    0.066169   -0.171098
  14 Mn:   -0.279388    4.332065

  Mayer bond orders larger than 0.100000
B(  0-Au,  2-Au) :   0.2516 B(  0-Au,  5-Au) :   0.2213 B(  0-Au, 10-Au) :   0.3432
B(  0-Au, 14-Mn) :   0.3235 B(  1-Au,  2-Au) :   0.2423 B(  1-Au,  3-Au) :   0.3468
B(  1-Au,  4-Au) :   0.2239 B(  1-Au, 14-Mn) :   0.3259 B(  2-Au,  6-Au) :   0.2508
B(  2-Au, 14-Mn) :   0.4620 B(  3-Au,  6-Au) :   0.2393 B(  3-Au,  8-Au) :   0.4090
B(  3-Au, 12-Au) :   0.1138 B(  3-Au, 14-Mn) :   0.4707 B(  4-Au, 12-Au) :   0.3557
B(  4-Au, 13-Au) :   0.2049 B(  4-Au, 14-Mn) :   0.4373 B(  5-Au, 11-Au) :   0.3587
B(  5-Au, 13-Au) :   0.1967 B(  5-Au, 14-Mn) :   0.4421 B(  6-Au,  7-Au) :   0.2711
B(  6-Au,  8-Au) :   0.2697 B(  6-Au, 10-Au) :   0.2466 B(  6-Au, 14-Mn) :   0.3028
B(  7-Au,  8-Au) :   0.1037 B(  7-Au,  9-Au) :   0.2433 B(  7-Au, 10-Au) :   0.4039
B(  7-Au, 11-Au) :   0.2923 B(  8-Au,  9-Au) :   0.2431 B(  8-Au, 12-Au) :   0.2863
B(  9-Au, 11-Au) :   0.3227 B(  9-Au, 12-Au) :   0.3220 B( 10-Au, 11-Au) :   0.1171
B( 10-Au, 14-Mn) :   0.4655 B( 11-Au, 12-Au) :   0.2230 B( 11-Au, 13-Au) :   0.1980
B( 11-Au, 14-Mn) :   0.3510 B( 12-Au, 13-Au) :   0.2063 B( 12-Au, 14-Mn) :   0.3510
B( 13-Au, 14-Mn) :   0.4189

FINAL SINGLE POINT ENERGY     -3052.850549300636

DIPOLE MOMENT
-------------
                                X             Y             Z
Electronic contribution:    -32.86789       6.63578       8.49648
Nuclear contribution   :     33.17091      -6.88089      -8.58960
                        -----------------------------------------
Total Dipole Moment    :      0.30303      -0.24510      -0.09311
                        -----------------------------------------
Magnitude (a.u.)       :      0.40071
Magnitude (Debye)      :      1.01854

Rotational constants in cm-1:     0.001137     0.000970     0.000906
Rotational constants in MHz :    34.088371    29.065900    27.165973

                             ****ORCA TERMINATED NORMALLY****
TOTAL RUN TIME: 0 days 0 hours 26 minutes 54 seconds 281 msec
