                         Program Version 5.0.3 -  RELEASE  -
|  1> !CASSCF def2-TZVP def2-TZVP/C
|  2> !MOREAD RIJCOSX
|  3> %maxcore 6000
|  4> %moinp "pbe.qro"
|  5> %pal nprocs 16 end
|  6>
|  7> %casscf
|  8>  mult 6,4
|  9>  bweight 1,1
| 10>  nroots 1,24
| 11>  nel 5
| 12>  norb 5
| 13> end
| 14>
| 15>
| 16> *xyzfile 0 6 pbe.xyz
| 17>
| 18>
| 19>                          ****END OF INPUT****

CARTESIAN COORDINATES (ANGSTROEM)
---------------------------------
  Au     7.468505    9.296277   10.076400
  Au     7.620721    6.978265    8.735777
  Au     6.145466    6.781759    6.289352
  Au     8.483860    5.140120    6.899290
  Au    10.470292    6.751522    7.861800
  Au     8.644905    7.741929    5.713037
  Au    11.670758    8.946321    8.946395
  Au    10.706081   11.358872    7.592238
  Au     9.846552   10.701513   10.164251
  Au     7.946455   11.512041    8.083233
  Au    10.938384    9.097795    6.021921
  Au     6.586264    9.322529    7.194101
  Mn     9.165883    9.127597    8.021660

 Total Charge           Charge          ....    0
 Multiplicity           Mult            ....    6
 Number of Electrons    NEL             ....  253
 Basis Dimension        Dim             ....  525

ORBITAL ENERGIES
----------------

  NO   OCC          E(Eh)            E(eV)
   0   2.0000    -240.501543     -6544.3797
   1   2.0000     -29.073889      -791.1407
   2   2.0000     -24.781822      -674.3477
   3   2.0000     -24.778625      -674.2607
   4   2.0000     -24.777550      -674.2314
   5   2.0000      -4.713102      -128.2500
   6   2.0000      -4.713066      -128.2491
   7   2.0000      -4.712867      -128.2436
   8   2.0000      -4.712844      -128.2430
   9   2.0000      -4.712043      -128.2212
  10   2.0000      -4.712035      -128.2210
  11   2.0000      -4.707334      -128.0931
  12   2.0000      -4.707210      -128.0897
  13   2.0000      -4.707056      -128.0855
  14   2.0000      -4.706976      -128.0833
  15   2.0000      -4.699324      -127.8751
  16   2.0000      -4.699217      -127.8722
  17   2.0000      -3.766403      -102.4890
  18   2.0000      -2.755172       -74.9720
  19   2.0000      -2.755080       -74.9695
  20   2.0000      -2.752673       -74.9040
  21   2.0000      -2.752484       -74.8989
  22   2.0000      -2.751584       -74.8744
  23   2.0000      -2.751311       -74.8670
  24   2.0000      -2.751052       -74.8599
  25   2.0000      -2.750958       -74.8574
  26   2.0000      -2.748550       -74.7919
  27   2.0000      -2.748337       -74.7861
  28   2.0000      -2.748133       -74.7805
  29   2.0000      -2.747850       -74.7728
  30   2.0000      -2.747750       -74.7701
  31   2.0000      -2.746965       -74.7487
  32   2.0000      -2.746379       -74.7328
  33   2.0000      -2.746032       -74.7233
  34   2.0000      -2.745833       -74.7179
  35   2.0000      -2.745573       -74.7108
  36   2.0000      -2.745389       -74.7058
  37   2.0000      -2.744852       -74.6912
  38   2.0000      -2.744121       -74.6713
  39   2.0000      -2.743825       -74.6633
  40   2.0000      -2.742999       -74.6408
  41   2.0000      -2.742813       -74.6357
  42   2.0000      -2.742171       -74.6183
  43   2.0000      -2.741129       -74.5899
  44   2.0000      -2.740316       -74.5678
  45   2.0000      -2.739637       -74.5493
  46   2.0000      -2.739140       -74.5358
  47   2.0000      -2.739065       -74.5337
  48   2.0000      -2.736093       -74.4529
  49   2.0000      -2.735932       -74.4485
  50   2.0000      -2.735262       -74.4303
  51   2.0000      -2.733225       -74.3748
  52   2.0000      -2.733170       -74.3733
  53   2.0000      -2.732514       -74.3555
  54   2.0000      -2.439753       -66.3891
  55   2.0000      -2.436239       -66.2934
  56   2.0000      -2.434165       -66.2370
  57   2.0000      -0.562489       -15.3061
  58   2.0000      -0.552908       -15.0454
  59   2.0000      -0.548085       -14.9142
  60   2.0000      -0.545962       -14.8564
  61   2.0000      -0.543553       -14.7908
  62   2.0000      -0.539961       -14.6931
  63   2.0000      -0.537976       -14.6391
  64   2.0000      -0.537092       -14.6150
  65   2.0000      -0.533230       -14.5099
  66   2.0000      -0.532123       -14.4798
  67   2.0000      -0.530854       -14.4453
  68   2.0000      -0.529504       -14.4085
  69   2.0000      -0.525542       -14.3007
  70   2.0000      -0.524871       -14.2825
  71   2.0000      -0.520153       -14.1541
  72   2.0000      -0.519039       -14.1238
  73   2.0000      -0.515043       -14.0150
  74   2.0000      -0.511167       -13.9096
  75   2.0000      -0.507781       -13.8174
  76   2.0000      -0.506373       -13.7791
  77   2.0000      -0.504056       -13.7161
  78   2.0000      -0.501181       -13.6378
  79   2.0000      -0.500476       -13.6186
  80   2.0000      -0.495182       -13.4746
  81   2.0000      -0.491177       -13.3656
  82   2.0000      -0.488521       -13.2933
  83   2.0000      -0.488059       -13.2808
  84   2.0000      -0.479950       -13.0601
  85   2.0000      -0.474370       -12.9083
  86   2.0000      -0.470085       -12.7917
  87   2.0000      -0.466167       -12.6851
  88   2.0000      -0.465958       -12.6794
  89   2.0000      -0.464023       -12.6267
  90   2.0000      -0.463365       -12.6088
  91   2.0000      -0.461428       -12.5561
  92   2.0000      -0.461003       -12.5445
  93   2.0000      -0.456983       -12.4351
  94   2.0000      -0.452741       -12.3197
  95   2.0000      -0.452688       -12.3183
  96   2.0000      -0.449848       -12.2410
  97   2.0000      -0.448647       -12.2083
  98   2.0000      -0.448352       -12.2003
  99   2.0000      -0.444913       -12.1067
 100   2.0000      -0.444142       -12.0857
 101   2.0000      -0.443163       -12.0591
 102   2.0000      -0.438542       -11.9333
 103   2.0000      -0.437583       -11.9072
 104   2.0000      -0.436928       -11.8894
 105   2.0000      -0.434970       -11.8361
 106   2.0000      -0.434241       -11.8163
 107   2.0000      -0.428125       -11.6499
 108   2.0000      -0.427983       -11.6460
 109   2.0000      -0.424598       -11.5539
 110   2.0000      -0.422286       -11.4910
 111   2.0000      -0.422008       -11.4834
 112   2.0000      -0.417226       -11.3533
 113   2.0000      -0.413361       -11.2481
 114   2.0000      -0.409197       -11.1348
 115   2.0000      -0.406069       -11.0497
 116   2.0000      -0.400154       -10.8887
 117   2.0000      -0.394014       -10.7217
 118   2.0000      -0.374448       -10.1892
 119   2.0000      -0.336961        -9.1692
 120   2.0000      -0.296053        -8.0560
 121   2.0000      -0.271967        -7.4006
 122   2.0000      -0.245109        -6.6698
 123   2.0000      -0.227991        -6.2040
 124   1.0000      -0.093112        -2.5337
 125   1.0000      -0.092385        -2.5139
 126   1.0000      -0.106530        -2.8988
 127   1.0000      -0.070334        -1.9139
 128   1.0000      -0.131575        -3.5803
 129   0.0000      -0.029701        -0.8082
 130   0.0000      -0.018602        -0.5062
 131   0.0000       0.004549         0.1238
 132   0.0000       0.011736         0.3193
 133   0.0000       0.022963         0.6249

MULLIKEN ATOMIC CHARGES AND SPIN DENSITIES
------------------------------------------
   0 Au:    0.362703    0.046264
   1 Au:   -0.104375    0.118723
   2 Au:    0.356419    0.021973
   3 Au:    0.356450    0.021972
   4 Au:    0.026885    0.016434
   5 Au:   -0.105486    0.118889
   6 Au:    0.278996    0.020886
   7 Au:    0.235632    0.169169
   8 Au:    0.236403    0.169491
   9 Au:    0.278564    0.020809
  10 Au:    0.363159    0.046496
  11 Au:    0.026957    0.016425
  12 Mn:   -2.312307    3.212470
Sum of atomic charges       :    0.0000000

LOEWDIN ATOMIC CHARGES AND SPIN DENSITIES
-----------------------------------------
   0 Au:    0.123903    0.081912
   1 Au:   -0.076209    0.079384
   2 Au:    0.075045    0.042272
   3 Au:    0.075099    0.042254
   4 Au:    0.021356    0.029835
   5 Au:   -0.076424    0.079360
   6 Au:    0.086586    0.050682
   7 Au:    0.017634    0.132682
   8 Au:    0.018317    0.132731
   9 Au:    0.086530    0.050551
  10 Au:    0.124145    0.082061
  11 Au:    0.021149    0.029829
  12 Mn:   -0.497130    3.166446

  Mayer bond orders larger than 0.100000
B(  0-Au,  1-Au) :   0.2916 B(  0-Au,  8-Au) :   0.1335 B(  0-Au, 12-Mn) :   0.4413
B(  1-Au,  2-Au) :   0.1683 B(  1-Au,  3-Au) :   0.3353 B(  1-Au,  4-Au) :   0.1958
B(  1-Au,  5-Au) :   0.1873 B(  1-Au, 11-Au) :   0.1456 B(  1-Au, 12-Mn) :   0.3435
B(  2-Au,  5-Au) :   0.3352 B(  2-Au, 11-Au) :   0.3572 B(  3-Au,  4-Au) :   0.3573
B(  3-Au,  5-Au) :   0.1683 B(  4-Au,  5-Au) :   0.1459 B(  4-Au,  6-Au) :   0.1882
B(  4-Au, 12-Mn) :   0.4512 B(  5-Au, 10-Au) :   0.2917 B(  5-Au, 11-Au) :   0.1960
B(  5-Au, 12-Mn) :   0.3441 B(  6-Au,  7-Au) :   0.1268 B(  6-Au,  8-Au) :   0.1808
B(  6-Au,  9-Au) :   0.1366 B(  6-Au, 12-Mn) :   0.4220 B(  7-Au,  8-Au) :   0.1927
B(  7-Au,  9-Au) :   0.1816 B(  7-Au, 10-Au) :   0.1339 B(  7-Au, 12-Mn) :   0.3483
B(  8-Au,  9-Au) :   0.1262 B(  8-Au, 12-Mn) :   0.3484 B(  9-Au, 11-Au) :   0.1883
B(  9-Au, 12-Mn) :   0.4209 B( 10-Au, 12-Mn) :   0.4404 B( 11-Au, 12-Mn) :   0.4511

FINAL SINGLE POINT ENERGY     -2767.367940803520

DIPOLE MOMENT
-------------
                                X             Y             Z
Electronic contribution:    -10.45166     -17.81660      -8.09708
Nuclear contribution   :     10.49745      17.89479       8.13189
                        -----------------------------------------
Total Dipole Moment    :      0.04578       0.07820       0.03481
                        -----------------------------------------
Magnitude (a.u.)       :      0.09707
Magnitude (Debye)      :      0.24673

Rotational constants in cm-1:     0.001730     0.001168     0.000996
Rotational constants in MHz :    51.861552    35.018381    29.872095

                             ****ORCA TERMINATED NORMALLY****
TOTAL RUN TIME: 0 days 0 hours 29 minutes 55 seconds 24 msec
