                         Program Version 5.0.3 -  RELEASE  -
|  1> !RI-B2PLYP def2-TZVP def2-TZVP/C
|  2> !RIJCOSX KDIIS
|  3> %pal nprocs 16 end
|  4>
|  5> %scf
|  6>   AutoTRAHIter 200
|  7>   maxiter 400
|  8> end
|  9>
| 10>
| 11>
| 12> *xyzfile 0 5 pbe.xyz
| 13>
| 14> $new_job
| 15>
| 16> !RI-B2PLYP def2-TZVP def2-TZVP/C
| 17> !RIJCOSX KDIIS
| 18>
| 19> %pal nprocs 16 end
| 20> %scf
| 21>   AutoTRAHIter 200
| 22>   maxiter 400
| 23> end
| 24>
| 25>
| 26> *xyzfile 0 3 pbe.xyz
| 27>
| 28>
| 29>
| 30>
| 31>
| 32>                          ****END OF INPUT****
 Total Charge           Charge          ....    0
 Multiplicity           Mult            ....    5
 Number of Electrons    NEL             ....  310
MP2 TOTAL ENERGY:    -3184.684233339 Eh
FINAL SINGLE POINT ENERGY     -3184.684233339261

CARTESIAN COORDINATES (ANGSTROEM)
---------------------------------
  Au     9.648387    6.649103    8.705769
  Au    10.170215    8.652146    6.871941
  Au     8.073434    4.992802   10.302537
  Au     7.518664    4.766675    7.621167
  Au     8.046179    7.016567    6.149303
  Au     8.743827    9.436902    9.145969
  Au     8.545969    7.654393   11.180633
  Au     7.680865    9.852417    6.562895
  Au     5.880825    8.425069    5.046942
  Au     5.135070    9.067258    7.675589
  Au     6.136085    9.111675   10.539301
  Au     6.591392   11.173917    8.754773
  Au     5.364778    6.340066    6.850582
  Au     4.278282    7.039985    9.306792
  Au     5.974115    6.461812   11.391803
  Mn     7.007591    7.191954    8.854465

 Multiplicity           Mult            ....    3
 Number of Electrons    NEL             ....  310
 Basis Dimension        Dim             ....  645

ORBITAL ENERGIES
----------------
                 SPIN UP ORBITALS
  NO   OCC          E(Eh)            E(eV)
   0   1.0000    -237.631814     -6466.2904
   1   1.0000     -28.134446      -765.5772
   2   1.0000     -24.052684      -654.5068
   3   1.0000     -24.051933      -654.4864
   4   1.0000     -24.051865      -654.4845
   5   1.0000      -4.411716      -120.0489
   6   1.0000      -4.411708      -120.0487
   7   1.0000      -4.411415      -120.0407
   8   1.0000      -4.411372      -120.0395
   9   1.0000      -4.409548      -119.9899
  10   1.0000      -4.408142      -119.9516
  11   1.0000      -4.404855      -119.8622
  12   1.0000      -4.404836      -119.8617
  13   1.0000      -4.403770      -119.8327
  14   1.0000      -4.402015      -119.7849
  15   1.0000      -4.401793      -119.7789
  16   1.0000      -4.397244      -119.6551
  17   1.0000      -4.389592      -119.4469
  18   1.0000      -4.388887      -119.4277
  19   1.0000      -4.388859      -119.4269
  20   1.0000      -3.612470       -98.3003
  21   1.0000      -2.532223       -68.9053
  22   1.0000      -2.532153       -68.9034
  23   1.0000      -2.532021       -68.8998
  24   1.0000      -2.531843       -68.8949
  25   1.0000      -2.530438       -68.8567
  26   1.0000      -2.530417       -68.8561
  27   1.0000      -2.529431       -68.8293
  28   1.0000      -2.529146       -68.8216
  29   1.0000      -2.528682       -68.8089
  30   1.0000      -2.528335       -68.7995
  31   1.0000      -2.528155       -68.7946
  32   1.0000      -2.528009       -68.7906
  33   1.0000      -2.527366       -68.7731
  34   1.0000      -2.526784       -68.7573
  35   1.0000      -2.526541       -68.7507
  36   1.0000      -2.525262       -68.7159
  37   1.0000      -2.524489       -68.6948
  38   1.0000      -2.524440       -68.6935
  39   1.0000      -2.524398       -68.6924
  40   1.0000      -2.524148       -68.6856
  41   1.0000      -2.523203       -68.6599
  42   1.0000      -2.522602       -68.6435
  43   1.0000      -2.522554       -68.6422
  44   1.0000      -2.521300       -68.6081
  45   1.0000      -2.520026       -68.5734
  46   1.0000      -2.519635       -68.5628
  47   1.0000      -2.518995       -68.5453
  48   1.0000      -2.518950       -68.5441
  49   1.0000      -2.518888       -68.5424
  50   1.0000      -2.518826       -68.5407
  51   1.0000      -2.516870       -68.4875
  52   1.0000      -2.516379       -68.4741
  53   1.0000      -2.515889       -68.4608
  54   1.0000      -2.515858       -68.4600
  55   1.0000      -2.515794       -68.4582
  56   1.0000      -2.511845       -68.3508
  57   1.0000      -2.507187       -68.2240
  58   1.0000      -2.506343       -68.2011
  59   1.0000      -2.506267       -68.1990
  60   1.0000      -2.506236       -68.1981
  61   1.0000      -2.505884       -68.1886
  62   1.0000      -2.505609       -68.1811
  63   1.0000      -2.505381       -68.1749
  64   1.0000      -2.504718       -68.1568
  65   1.0000      -2.504499       -68.1509
  66   1.0000      -2.414449       -65.7005
  67   1.0000      -2.413867       -65.6847
  68   1.0000      -2.413781       -65.6823
  69   1.0000      -0.525595       -14.3022
  70   1.0000      -0.524503       -14.2724
  71   1.0000      -0.523513       -14.2455
  72   1.0000      -0.519053       -14.1241
  73   1.0000      -0.517984       -14.0951
  74   1.0000      -0.500892       -13.6300
  75   1.0000      -0.475966       -12.9517
  76   1.0000      -0.472614       -12.8605
  77   1.0000      -0.471231       -12.8228
  78   1.0000      -0.470487       -12.8026
  79   1.0000      -0.468492       -12.7483
  80   1.0000      -0.467594       -12.7239
  81   1.0000      -0.462891       -12.5959
  82   1.0000      -0.462046       -12.5729
  83   1.0000      -0.460964       -12.5435
  84   1.0000      -0.460914       -12.5421
  85   1.0000      -0.460691       -12.5361
  86   1.0000      -0.459036       -12.4910
  87   1.0000      -0.455357       -12.3909
  88   1.0000      -0.454007       -12.3542
  89   1.0000      -0.451846       -12.2953
  90   1.0000      -0.451509       -12.2862
  91   1.0000      -0.448951       -12.2166
  92   1.0000      -0.447121       -12.1668
  93   1.0000      -0.441444       -12.0123
  94   1.0000      -0.440113       -11.9761
  95   1.0000      -0.437705       -11.9106
  96   1.0000      -0.437232       -11.8977
  97   1.0000      -0.432042       -11.7565
  98   1.0000      -0.431742       -11.7483
  99   1.0000      -0.429954       -11.6996
 100   1.0000      -0.428476       -11.6594
 101   1.0000      -0.427681       -11.6378
 102   1.0000      -0.425311       -11.5733
 103   1.0000      -0.424263       -11.5448
 104   1.0000      -0.419170       -11.4062
 105   1.0000      -0.415531       -11.3072
 106   1.0000      -0.411276       -11.1914
 107   1.0000      -0.410376       -11.1669
 108   1.0000      -0.409000       -11.1295
 109   1.0000      -0.406704       -11.0670
 110   1.0000      -0.395722       -10.7682
 111   1.0000      -0.394732       -10.7412
 112   1.0000      -0.393496       -10.7076
 113   1.0000      -0.391368       -10.6497
 114   1.0000      -0.390649       -10.6301
 115   1.0000      -0.386765       -10.5244
 116   1.0000      -0.383465       -10.4346
 117   1.0000      -0.382809       -10.4168
 118   1.0000      -0.378201       -10.2914
 119   1.0000      -0.376885       -10.2556
 120   1.0000      -0.375761       -10.2250
 121   1.0000      -0.374193       -10.1823
 122   1.0000      -0.372823       -10.1450
 123   1.0000      -0.372389       -10.1332
 124   1.0000      -0.372054       -10.1241
 125   1.0000      -0.371252       -10.1023
 126   1.0000      -0.370259       -10.0753
 127   1.0000      -0.369536       -10.0556
 128   1.0000      -0.368055       -10.0153
 129   1.0000      -0.367122        -9.9899
 130   1.0000      -0.366265        -9.9666
 131   1.0000      -0.363603        -9.8941
 132   1.0000      -0.362514        -9.8645
 133   1.0000      -0.360883        -9.8201
 134   1.0000      -0.359884        -9.7929
 135   1.0000      -0.357492        -9.7278
 136   1.0000      -0.355116        -9.6632
 137   1.0000      -0.354353        -9.6424
 138   1.0000      -0.352776        -9.5995
 139   1.0000      -0.351183        -9.5562
 140   1.0000      -0.351058        -9.5528
 141   1.0000      -0.345898        -9.4124
 142   1.0000      -0.345479        -9.4010
 143   1.0000      -0.345321        -9.3967
 144   1.0000      -0.341253        -9.2860
 145   1.0000      -0.338487        -9.2107
 146   1.0000      -0.333011        -9.0617
 147   1.0000      -0.330015        -8.9802
 148   1.0000      -0.329106        -8.9554
 149   1.0000      -0.324434        -8.8283
 150   1.0000      -0.323145        -8.7932
 151   1.0000      -0.311245        -8.4694
 152   1.0000      -0.309882        -8.4323
 153   1.0000      -0.246921        -6.7190
 154   1.0000      -0.242577        -6.6009
 155   1.0000      -0.223294        -6.0761
 156   0.0000      -0.139979        -3.8090
 157   0.0000      -0.117515        -3.1977
 158   0.0000      -0.087480        -2.3805
 159   0.0000      -0.078245        -2.1292
 160   0.0000      -0.070544        -1.9196

                 SPIN DOWN ORBITALS
  NO   OCC          E(Eh)            E(eV)
   0   1.0000    -237.630130     -6466.2446
   1   1.0000     -28.033591      -762.8328
   2   1.0000     -23.959601      -651.9739
   3   1.0000     -23.959325      -651.9664
   4   1.0000     -23.959167      -651.9621
   5   1.0000      -4.412971      -120.0830
   6   1.0000      -4.412912      -120.0815
   7   1.0000      -4.412079      -120.0588
   8   1.0000      -4.412070      -120.0585
   9   1.0000      -4.409546      -119.9898
  10   1.0000      -4.409106      -119.9779
  11   1.0000      -4.405220      -119.8721
  12   1.0000      -4.405216      -119.8720
  13   1.0000      -4.404012      -119.8393
  14   1.0000      -4.402303      -119.7928
  15   1.0000      -4.402087      -119.7869
  16   1.0000      -4.397983      -119.6752
  17   1.0000      -4.391255      -119.4921
  18   1.0000      -4.390818      -119.4802
  19   1.0000      -4.390800      -119.4797
  20   1.0000      -3.328758       -90.5801
  21   1.0000      -2.532827       -68.9217
  22   1.0000      -2.532622       -68.9161
  23   1.0000      -2.531349       -68.8815
  24   1.0000      -2.531285       -68.8798
  25   1.0000      -2.531053       -68.8735
  26   1.0000      -2.531041       -68.8731
  27   1.0000      -2.529738       -68.8377
  28   1.0000      -2.529654       -68.8354
  29   1.0000      -2.528762       -68.8111
  30   1.0000      -2.528475       -68.8033
  31   1.0000      -2.528355       -68.8000
  32   1.0000      -2.527505       -68.7769
  33   1.0000      -2.527299       -68.7713
  34   1.0000      -2.526743       -68.7562
  35   1.0000      -2.526594       -68.7521
  36   1.0000      -2.525635       -68.7260
  37   1.0000      -2.524881       -68.7055
  38   1.0000      -2.524472       -68.6944
  39   1.0000      -2.524169       -68.6861
  40   1.0000      -2.524051       -68.6829
  41   1.0000      -2.523130       -68.6579
  42   1.0000      -2.522683       -68.6457
  43   1.0000      -2.522478       -68.6401
  44   1.0000      -2.521175       -68.6047
  45   1.0000      -2.520487       -68.5859
  46   1.0000      -2.519754       -68.5660
  47   1.0000      -2.519318       -68.5541
  48   1.0000      -2.519238       -68.5520
  49   1.0000      -2.518958       -68.5443
  50   1.0000      -2.518825       -68.5407
  51   1.0000      -2.517026       -68.4918
  52   1.0000      -2.516743       -68.4841
  53   1.0000      -2.516529       -68.4782
  54   1.0000      -2.516464       -68.4765
  55   1.0000      -2.516028       -68.4646
  56   1.0000      -2.512677       -68.3734
  57   1.0000      -2.509737       -68.2934
  58   1.0000      -2.509109       -68.2763
  59   1.0000      -2.508959       -68.2723
  60   1.0000      -2.508198       -68.2515
  61   1.0000      -2.507221       -68.2249
  62   1.0000      -2.506941       -68.2173
  63   1.0000      -2.506739       -68.2118
  64   1.0000      -2.506343       -68.2011
  65   1.0000      -2.506186       -68.1968
  66   1.0000      -2.089566       -56.8600
  67   1.0000      -2.088968       -56.8437
  68   1.0000      -2.086972       -56.7894
  69   1.0000      -0.517341       -14.0776
  70   1.0000      -0.481771       -13.1096
  71   1.0000      -0.478452       -13.0193
  72   1.0000      -0.477881       -13.0038
  73   1.0000      -0.475690       -12.9442
  74   1.0000      -0.475191       -12.9306
  75   1.0000      -0.474653       -12.9160
  76   1.0000      -0.473072       -12.8730
  77   1.0000      -0.470638       -12.8067
  78   1.0000      -0.467181       -12.7126
  79   1.0000      -0.466516       -12.6946
  80   1.0000      -0.465047       -12.6546
  81   1.0000      -0.464171       -12.6307
  82   1.0000      -0.462297       -12.5797
  83   1.0000      -0.461714       -12.5639
  84   1.0000      -0.459104       -12.4929
  85   1.0000      -0.458363       -12.4727
  86   1.0000      -0.456510       -12.4223
  87   1.0000      -0.454053       -12.3554
  88   1.0000      -0.451996       -12.2994
  89   1.0000      -0.449933       -12.2433
  90   1.0000      -0.444299       -12.0900
  91   1.0000      -0.440637       -11.9903
  92   1.0000      -0.439763       -11.9666
  93   1.0000      -0.435652       -11.8547
  94   1.0000      -0.433955       -11.8085
  95   1.0000      -0.431922       -11.7532
  96   1.0000      -0.430324       -11.7097
  97   1.0000      -0.429239       -11.6802
  98   1.0000      -0.427866       -11.6428
  99   1.0000      -0.423506       -11.5242
 100   1.0000      -0.419740       -11.4217
 101   1.0000      -0.416144       -11.3238
 102   1.0000      -0.413608       -11.2549
 103   1.0000      -0.412095       -11.2137
 104   1.0000      -0.409835       -11.1522
 105   1.0000      -0.406203       -11.0534
 106   1.0000      -0.405585       -11.0365
 107   1.0000      -0.399294       -10.8653
 108   1.0000      -0.398528       -10.8445
 109   1.0000      -0.395968       -10.7749
 110   1.0000      -0.391564       -10.6550
 111   1.0000      -0.391172       -10.6443
 112   1.0000      -0.388687       -10.5767
 113   1.0000      -0.383794       -10.4436
 114   1.0000      -0.381358       -10.3773
 115   1.0000      -0.379352       -10.3227
 116   1.0000      -0.378984       -10.3127
 117   1.0000      -0.377667       -10.2769
 118   1.0000      -0.377319       -10.2674
 119   1.0000      -0.374976       -10.2036
 120   1.0000      -0.374614       -10.1938
 121   1.0000      -0.373054       -10.1513
 122   1.0000      -0.372245       -10.1293
 123   1.0000      -0.370881       -10.0922
 124   1.0000      -0.370479       -10.0812
 125   1.0000      -0.369823       -10.0634
 126   1.0000      -0.366954        -9.9853
 127   1.0000      -0.366269        -9.9667
 128   1.0000      -0.362659        -9.8684
 129   1.0000      -0.362223        -9.8566
 130   1.0000      -0.362028        -9.8513
 131   1.0000      -0.359175        -9.7737
 132   1.0000      -0.357544        -9.7293
 133   1.0000      -0.356205        -9.6928
 134   1.0000      -0.355634        -9.6773
 135   1.0000      -0.352269        -9.5857
 136   1.0000      -0.349617        -9.5136
 137   1.0000      -0.349596        -9.5130
 138   1.0000      -0.348305        -9.4779
 139   1.0000      -0.344392        -9.3714
 140   1.0000      -0.342981        -9.3330
 141   1.0000      -0.337059        -9.1718
 142   1.0000      -0.335620        -9.1327
 143   1.0000      -0.333678        -9.0799
 144   1.0000      -0.327628        -8.9152
 145   1.0000      -0.327301        -8.9063
 146   1.0000      -0.325087        -8.8461
 147   1.0000      -0.324809        -8.8385
 148   1.0000      -0.260938        -7.1005
 149   1.0000      -0.255938        -6.9644
 150   1.0000      -0.238316        -6.4849
 151   1.0000      -0.235820        -6.4170
 152   1.0000      -0.209179        -5.6920
 153   1.0000      -0.161951        -4.4069
 154   0.0000      -0.088312        -2.4031
 155   0.0000      -0.082236        -2.2378
 156   0.0000      -0.071588        -1.9480
 157   0.0000      -0.067002        -1.8232
 158   0.0000      -0.051523        -1.4020

MULLIKEN ATOMIC CHARGES AND SPIN POPULATIONS
--------------------------------------------
   0 Au:    0.117220   -0.325425
   1 Au:    0.291756   -0.257664
   2 Au:    0.298189   -0.074939
   3 Au:    0.307076   -0.084533
   4 Au:   -0.087560   -0.177954
   5 Au:   -0.190600   -0.157092
   6 Au:    0.247551    0.003063
   7 Au:   -0.122858    0.061033
   8 Au:    0.273560   -0.171990
   9 Au:   -0.088800   -0.177168
  10 Au:    0.118667   -0.327677
  11 Au:    0.291270   -0.258031
  12 Au:    0.164346   -0.318034
  13 Au:    0.307578   -0.088179
  14 Au:    0.298689   -0.072539
  15 Mn:   -2.226084    4.427129
Sum of atomic charges         :   -0.0000000

LOEWDIN ATOMIC CHARGES AND SPIN POPULATIONS
-------------------------------------------
   0 Au:   -0.017781   -0.222403
   1 Au:    0.071931   -0.236259
   2 Au:    0.041703   -0.095639
   3 Au:    0.103836   -0.156190
   4 Au:   -0.055282   -0.166909
   5 Au:   -0.066690   -0.164589
   6 Au:    0.054053   -0.082044
   7 Au:   -0.081701   -0.047873
   8 Au:    0.089023   -0.162275
   9 Au:   -0.055162   -0.166743
  10 Au:   -0.017698   -0.223760
  11 Au:    0.071495   -0.237360
  12 Au:   -0.023972   -0.273480
  13 Au:    0.103889   -0.158097
  14 Au:    0.042430   -0.094357
  15 Mn:   -0.260075    4.487978

  Mayer bond orders larger than 0.100000
B(  0-Au,  1-Au) :   0.3419 B(  0-Au,  2-Au) :   0.2156 B(  0-Au,  4-Au) :   0.1715
B(  0-Au,  5-Au) :   0.1500 B(  0-Au,  6-Au) :   0.1279 B(  0-Au, 15-Mn) :   0.3396
B(  1-Au,  4-Au) :   0.2544 B(  1-Au,  5-Au) :   0.2431 B(  1-Au,  7-Au) :   0.2021
B(  2-Au,  3-Au) :   0.2122 B(  2-Au,  6-Au) :   0.1279 B(  2-Au, 14-Au) :   0.2394
B(  2-Au, 15-Mn) :   0.3003 B(  3-Au,  4-Au) :   0.1916 B(  3-Au, 12-Au) :   0.1746
B(  3-Au, 15-Mn) :   0.3858 B(  4-Au,  7-Au) :   0.2411 B(  4-Au,  8-Au) :   0.2631
B(  4-Au, 12-Au) :   0.1533 B(  4-Au, 15-Mn) :   0.3493 B(  5-Au,  6-Au) :   0.2926
B(  5-Au,  7-Au) :   0.2523 B(  5-Au, 10-Au) :   0.1470 B(  5-Au, 11-Au) :   0.2460
B(  5-Au, 15-Mn) :   0.3775 B(  6-Au, 10-Au) :   0.1270 B(  6-Au, 14-Au) :   0.1272
B(  6-Au, 15-Mn) :   0.3783 B(  7-Au,  8-Au) :   0.2237 B(  7-Au,  9-Au) :   0.2425
B(  7-Au, 11-Au) :   0.2016 B(  7-Au, 15-Mn) :   0.1867 B(  8-Au,  9-Au) :   0.2645
B(  8-Au, 12-Au) :   0.2798 B(  9-Au, 10-Au) :   0.1724 B(  9-Au, 11-Au) :   0.2522
B(  9-Au, 12-Au) :   0.1514 B(  9-Au, 13-Au) :   0.1921 B(  9-Au, 15-Mn) :   0.3508
B( 10-Au, 11-Au) :   0.3420 B( 10-Au, 14-Au) :   0.2139 B( 10-Au, 15-Mn) :   0.3398
B( 12-Au, 13-Au) :   0.1761 B( 12-Au, 15-Mn) :   0.2976 B( 13-Au, 14-Au) :   0.2103
B( 13-Au, 15-Mn) :   0.3833 B( 14-Au, 15-Mn) :   0.3040

MP2 TOTAL ENERGY:    -3184.634129500 Eh
FINAL SINGLE POINT ENERGY     -3184.634129499972

DIPOLE MOMENT
-------------
                                X             Y             Z
Electronic contribution:      6.35676      20.97889     -16.15583
Nuclear contribution   :     -6.51593     -21.34799      16.35177
                        -----------------------------------------
Total Dipole Moment    :     -0.15917      -0.36910       0.19594
                        -----------------------------------------
Magnitude (a.u.)       :      0.44717
Magnitude (Debye)      :      1.13662

Rotational constants in cm-1:     0.001030     0.000880     0.000856
Rotational constants in MHz :    30.889447    26.371158    25.664053

                             ****ORCA TERMINATED NORMALLY****
TOTAL RUN TIME: 0 days 0 hours 22 minutes 49 seconds 688 msec
