                         Program Version 5.0.3 -  RELEASE  -
|  1> !PBE def2-TZVP SLOWCONV
|  2> !KDIIS
|  3>
|  4>
|  5> %pal nprocs 16 end
|  6>
|  7> %scf
|  8>   AutoTRAHIter 200
|  9>   maxiter 400
| 10> end
| 11>
| 12>
| 13> *xyzfile 0 5 pbe.xyz
| 14>
| 15> $new_job
| 16>
| 17> !PBE def2-TZVP SLOWCONV
| 18> !KDIIS
| 19>
| 20> %scf
| 21>   AutoTRAHIter 200
| 22>   maxiter 400
| 23> end
| 24>
| 25>
| 26> %pal nprocs 16 end
| 27>
| 28> *xyzfile 0 3 pbe.xyz
| 29>
| 30>
| 31>
| 32>
| 33>
| 34>                          ****END OF INPUT****
 Total Charge           Charge          ....    0
 Multiplicity           Mult            ....    5
 Number of Electrons    NEL             ....  310
FINAL SINGLE POINT ENERGY     -3188.215174721612

CARTESIAN COORDINATES (ANGSTROEM)
---------------------------------
  Au     9.648387    6.649103    8.705769
  Au    10.170215    8.652146    6.871941
  Au     8.073434    4.992802   10.302537
  Au     7.518664    4.766675    7.621167
  Au     8.046179    7.016567    6.149303
  Au     8.743827    9.436902    9.145969
  Au     8.545969    7.654393   11.180633
  Au     7.680865    9.852417    6.562895
  Au     5.880825    8.425069    5.046942
  Au     5.135070    9.067258    7.675589
  Au     6.136085    9.111675   10.539301
  Au     6.591392   11.173917    8.754773
  Au     5.364778    6.340066    6.850582
  Au     4.278282    7.039985    9.306792
  Au     5.974115    6.461812   11.391803
  Mn     7.007591    7.191954    8.854465

 Multiplicity           Mult            ....    3
 Number of Electrons    NEL             ....  310
 Basis Dimension        Dim             ....  645

ORBITAL ENERGIES
----------------
                 SPIN UP ORBITALS
  NO   OCC          E(Eh)            E(eV)
   0   1.0000    -234.208697     -6373.1426
   1   1.0000     -26.903259      -732.0749
   2   1.0000     -23.052036      -627.2778
   3   1.0000     -23.051848      -627.2727
   4   1.0000     -23.051485      -627.2628
   5   1.0000      -4.039794      -109.9284
   6   1.0000      -4.039781      -109.9280
   7   1.0000      -4.038498      -109.8931
   8   1.0000      -4.037769      -109.8733
   9   1.0000      -4.037681      -109.8709
  10   1.0000      -4.037328      -109.8613
  11   1.0000      -4.032215      -109.7221
  12   1.0000      -4.031141      -109.6929
  13   1.0000      -4.031138      -109.6928
  14   1.0000      -4.030073      -109.6639
  15   1.0000      -4.029925      -109.6598
  16   1.0000      -4.027526      -109.5946
  17   1.0000      -4.021985      -109.4438
  18   1.0000      -4.021929      -109.4422
  19   1.0000      -4.018650      -109.3530
  20   1.0000      -3.111560       -84.6698
  21   1.0000      -2.255475       -61.3746
  22   1.0000      -2.255468       -61.3744
  23   1.0000      -2.254592       -61.3506
  24   1.0000      -2.254045       -61.3357
  25   1.0000      -2.253830       -61.3298
  26   1.0000      -2.253431       -61.3190
  27   1.0000      -2.253130       -61.3108
  28   1.0000      -2.251578       -61.2685
  29   1.0000      -2.251276       -61.2603
  30   1.0000      -2.251154       -61.2570
  31   1.0000      -2.251095       -61.2554
  32   1.0000      -2.250152       -61.2298
  33   1.0000      -2.249712       -61.2178
  34   1.0000      -2.249511       -61.2123
  35   1.0000      -2.248839       -61.1940
  36   1.0000      -2.248679       -61.1897
  37   1.0000      -2.247865       -61.1675
  38   1.0000      -2.247616       -61.1607
  39   1.0000      -2.246847       -61.1398
  40   1.0000      -2.246196       -61.1221
  41   1.0000      -2.245973       -61.1160
  42   1.0000      -2.245746       -61.1098
  43   1.0000      -2.245531       -61.1040
  44   1.0000      -2.245514       -61.1036
  45   1.0000      -2.243867       -61.0587
  46   1.0000      -2.243842       -61.0580
  47   1.0000      -2.242895       -61.0323
  48   1.0000      -2.242785       -61.0293
  49   1.0000      -2.242716       -61.0274
  50   1.0000      -2.242566       -61.0233
  51   1.0000      -2.241662       -60.9987
  52   1.0000      -2.240885       -60.9776
  53   1.0000      -2.240628       -60.9706
  54   1.0000      -2.240566       -60.9689
  55   1.0000      -2.240111       -60.9565
  56   1.0000      -2.235878       -60.8413
  57   1.0000      -2.235459       -60.8299
  58   1.0000      -2.235389       -60.8280
  59   1.0000      -2.234363       -60.8001
  60   1.0000      -2.234169       -60.7948
  61   1.0000      -2.233869       -60.7867
  62   1.0000      -2.233733       -60.7830
  63   1.0000      -2.232025       -60.7365
  64   1.0000      -2.231066       -60.7104
  65   1.0000      -2.230606       -60.6979
  66   1.0000      -2.014558       -54.8189
  67   1.0000      -2.014112       -54.8068
  68   1.0000      -2.013364       -54.7864
  69   1.0000      -0.437882       -11.9154
  70   1.0000      -0.397114       -10.8060
  71   1.0000      -0.391885       -10.6637
  72   1.0000      -0.391146       -10.6436
  73   1.0000      -0.383411       -10.4331
  74   1.0000      -0.378624       -10.3029
  75   1.0000      -0.375850       -10.2274
  76   1.0000      -0.374456       -10.1895
  77   1.0000      -0.369599       -10.0573
  78   1.0000      -0.368455       -10.0262
  79   1.0000      -0.363029        -9.8785
  80   1.0000      -0.362068        -9.8524
  81   1.0000      -0.359720        -9.7885
  82   1.0000      -0.356267        -9.6945
  83   1.0000      -0.355594        -9.6762
  84   1.0000      -0.354149        -9.6369
  85   1.0000      -0.353370        -9.6157
  86   1.0000      -0.352893        -9.6027
  87   1.0000      -0.349108        -9.4997
  88   1.0000      -0.346961        -9.4413
  89   1.0000      -0.345520        -9.4021
  90   1.0000      -0.344874        -9.3845
  91   1.0000      -0.338737        -9.2175
  92   1.0000      -0.335365        -9.1257
  93   1.0000      -0.332085        -9.0365
  94   1.0000      -0.330528        -8.9941
  95   1.0000      -0.329512        -8.9665
  96   1.0000      -0.328735        -8.9453
  97   1.0000      -0.327254        -8.9050
  98   1.0000      -0.326460        -8.8834
  99   1.0000      -0.323487        -8.8025
 100   1.0000      -0.322356        -8.7717
 101   1.0000      -0.317962        -8.6522
 102   1.0000      -0.313484        -8.5303
 103   1.0000      -0.313180        -8.5220
 104   1.0000      -0.310279        -8.4431
 105   1.0000      -0.309871        -8.4320
 106   1.0000      -0.309783        -8.4296
 107   1.0000      -0.305468        -8.3122
 108   1.0000      -0.302910        -8.2426
 109   1.0000      -0.301769        -8.2115
 110   1.0000      -0.293841        -7.9958
 111   1.0000      -0.293695        -7.9918
 112   1.0000      -0.290934        -7.9167
 113   1.0000      -0.289485        -7.8773
 114   1.0000      -0.289292        -7.8720
 115   1.0000      -0.287920        -7.8347
 116   1.0000      -0.286093        -7.7850
 117   1.0000      -0.282796        -7.6953
 118   1.0000      -0.281397        -7.6572
 119   1.0000      -0.278812        -7.5869
 120   1.0000      -0.277576        -7.5532
 121   1.0000      -0.276830        -7.5329
 122   1.0000      -0.275633        -7.5003
 123   1.0000      -0.274335        -7.4650
 124   1.0000      -0.273604        -7.4451
 125   1.0000      -0.272706        -7.4207
 126   1.0000      -0.270209        -7.3528
 127   1.0000      -0.269249        -7.3266
 128   1.0000      -0.268349        -7.3022
 129   1.0000      -0.267741        -7.2856
 130   1.0000      -0.266121        -7.2415
 131   1.0000      -0.265820        -7.2333
 132   1.0000      -0.264595        -7.2000
 133   1.0000      -0.262189        -7.1345
 134   1.0000      -0.261099        -7.1049
 135   1.0000      -0.258148        -7.0246
 136   1.0000      -0.257758        -7.0139
 137   1.0000      -0.255405        -6.9499
 138   1.0000      -0.254794        -6.9333
 139   1.0000      -0.253813        -6.9066
 140   1.0000      -0.253721        -6.9041
 141   1.0000      -0.252670        -6.8755
 142   1.0000      -0.252324        -6.8661
 143   1.0000      -0.251917        -6.8550
 144   1.0000      -0.248958        -6.7745
 145   1.0000      -0.247140        -6.7250
 146   1.0000      -0.246516        -6.7080
 147   1.0000      -0.245638        -6.6841
 148   1.0000      -0.244394        -6.6503
 149   1.0000      -0.242496        -6.5986
 150   1.0000      -0.242205        -6.5907
 151   1.0000      -0.239148        -6.5076
 152   1.0000      -0.237483        -6.4622
 153   1.0000      -0.219178        -5.9641
 154   1.0000      -0.217514        -5.9188
 155   1.0000      -0.204692        -5.5699
 156   0.0000      -0.197411        -5.3718
 157   0.0000      -0.181443        -4.9373
 158   0.0000      -0.150961        -4.1079
 159   0.0000      -0.141232        -3.8431
 160   0.0000      -0.137574        -3.7436

                 SPIN DOWN ORBITALS
  NO   OCC          E(Eh)            E(eV)
   0   1.0000    -234.208134     -6373.1273
   1   1.0000     -26.837919      -730.2969
   2   1.0000     -23.003224      -625.9496
   3   1.0000     -23.002615      -625.9330
   4   1.0000     -23.000780      -625.8831
   5   1.0000      -4.039630      -109.9239
   6   1.0000      -4.039610      -109.9234
   7   1.0000      -4.038748      -109.8999
   8   1.0000      -4.038547      -109.8944
   9   1.0000      -4.038456      -109.8920
  10   1.0000      -4.037151      -109.8565
  11   1.0000      -4.032307      -109.7247
  12   1.0000      -4.031319      -109.6978
  13   1.0000      -4.031306      -109.6974
  14   1.0000      -4.030169      -109.6665
  15   1.0000      -4.030025      -109.6625
  16   1.0000      -4.028101      -109.6102
  17   1.0000      -4.023445      -109.4835
  18   1.0000      -4.023386      -109.4819
  19   1.0000      -4.020310      -109.3982
  20   1.0000      -2.951373       -80.3109
  21   1.0000      -2.255224       -61.3678
  22   1.0000      -2.255198       -61.3671
  23   1.0000      -2.254691       -61.3533
  24   1.0000      -2.254608       -61.3510
  25   1.0000      -2.254485       -61.3477
  26   1.0000      -2.253264       -61.3144
  27   1.0000      -2.252993       -61.3071
  28   1.0000      -2.252376       -61.2903
  29   1.0000      -2.252118       -61.2832
  30   1.0000      -2.251596       -61.2690
  31   1.0000      -2.250786       -61.2470
  32   1.0000      -2.250563       -61.2409
  33   1.0000      -2.249752       -61.2189
  34   1.0000      -2.249624       -61.2154
  35   1.0000      -2.248893       -61.1955
  36   1.0000      -2.248752       -61.1917
  37   1.0000      -2.248337       -61.1804
  38   1.0000      -2.247849       -61.1671
  39   1.0000      -2.246886       -61.1409
  40   1.0000      -2.246134       -61.1204
  41   1.0000      -2.245963       -61.1158
  42   1.0000      -2.245717       -61.1091
  43   1.0000      -2.245686       -61.1082
  44   1.0000      -2.245481       -61.1027
  45   1.0000      -2.244273       -61.0698
  46   1.0000      -2.243956       -61.0611
  47   1.0000      -2.243341       -61.0444
  48   1.0000      -2.243293       -61.0431
  49   1.0000      -2.242892       -61.0322
  50   1.0000      -2.242609       -61.0245
  51   1.0000      -2.241788       -61.0021
  52   1.0000      -2.241189       -60.9859
  53   1.0000      -2.241015       -60.9811
  54   1.0000      -2.240866       -60.9771
  55   1.0000      -2.240180       -60.9584
  56   1.0000      -2.237473       -60.8847
  57   1.0000      -2.237317       -60.8805
  58   1.0000      -2.236479       -60.8577
  59   1.0000      -2.235740       -60.8376
  60   1.0000      -2.235595       -60.8336
  61   1.0000      -2.235256       -60.8244
  62   1.0000      -2.235077       -60.8195
  63   1.0000      -2.234323       -60.7990
  64   1.0000      -2.233242       -60.7696
  65   1.0000      -2.231489       -60.7219
  66   1.0000      -1.859846       -50.6090
  67   1.0000      -1.858413       -50.5700
  68   1.0000      -1.852180       -50.4004
  69   1.0000      -0.434436       -11.8216
  70   1.0000      -0.397768       -10.8238
  71   1.0000      -0.393523       -10.7083
  72   1.0000      -0.390800       -10.6342
  73   1.0000      -0.378301       -10.2941
  74   1.0000      -0.374920       -10.2021
  75   1.0000      -0.373346       -10.1592
  76   1.0000      -0.372080       -10.1248
  77   1.0000      -0.369902       -10.0655
  78   1.0000      -0.368003       -10.0139
  79   1.0000      -0.363346        -9.8872
  80   1.0000      -0.362412        -9.8617
  81   1.0000      -0.359416        -9.7802
  82   1.0000      -0.357762        -9.7352
  83   1.0000      -0.356701        -9.7063
  84   1.0000      -0.354238        -9.6393
  85   1.0000      -0.353129        -9.6091
  86   1.0000      -0.352208        -9.5841
  87   1.0000      -0.349669        -9.5150
  88   1.0000      -0.347824        -9.4648
  89   1.0000      -0.345224        -9.3940
  90   1.0000      -0.342736        -9.3263
  91   1.0000      -0.338602        -9.2138
  92   1.0000      -0.336246        -9.1497
  93   1.0000      -0.332895        -9.0585
  94   1.0000      -0.332383        -9.0446
  95   1.0000      -0.329959        -8.9786
  96   1.0000      -0.328462        -8.9379
  97   1.0000      -0.328246        -8.9320
  98   1.0000      -0.328198        -8.9307
  99   1.0000      -0.323094        -8.7918
 100   1.0000      -0.319304        -8.6887
 101   1.0000      -0.315038        -8.5726
 102   1.0000      -0.313447        -8.5293
 103   1.0000      -0.312357        -8.4997
 104   1.0000      -0.310994        -8.4626
 105   1.0000      -0.306690        -8.3455
 106   1.0000      -0.305859        -8.3229
 107   1.0000      -0.302502        -8.2315
 108   1.0000      -0.299471        -8.1490
 109   1.0000      -0.297539        -8.0965
 110   1.0000      -0.293744        -7.9932
 111   1.0000      -0.292686        -7.9644
 112   1.0000      -0.290615        -7.9080
 113   1.0000      -0.290110        -7.8943
 114   1.0000      -0.289353        -7.8737
 115   1.0000      -0.288833        -7.8595
 116   1.0000      -0.284432        -7.7398
 117   1.0000      -0.284274        -7.7355
 118   1.0000      -0.280881        -7.6432
 119   1.0000      -0.280195        -7.6245
 120   1.0000      -0.278998        -7.5919
 121   1.0000      -0.277099        -7.5402
 122   1.0000      -0.275501        -7.4968
 123   1.0000      -0.274840        -7.4788
 124   1.0000      -0.274651        -7.4736
 125   1.0000      -0.274063        -7.4576
 126   1.0000      -0.271304        -7.3826
 127   1.0000      -0.270156        -7.3513
 128   1.0000      -0.269939        -7.3454
 129   1.0000      -0.268620        -7.3095
 130   1.0000      -0.267565        -7.2808
 131   1.0000      -0.266373        -7.2484
 132   1.0000      -0.264186        -7.1889
 133   1.0000      -0.262696        -7.1483
 134   1.0000      -0.262255        -7.1363
 135   1.0000      -0.259343        -7.0571
 136   1.0000      -0.258759        -7.0412
 137   1.0000      -0.256807        -6.9881
 138   1.0000      -0.255895        -6.9633
 139   1.0000      -0.254704        -6.9308
 140   1.0000      -0.254431        -6.9234
 141   1.0000      -0.253299        -6.8926
 142   1.0000      -0.250195        -6.8081
 143   1.0000      -0.247023        -6.7218
 144   1.0000      -0.246736        -6.7140
 145   1.0000      -0.245382        -6.6772
 146   1.0000      -0.241568        -6.5734
 147   1.0000      -0.239363        -6.5134
 148   1.0000      -0.228697        -6.2232
 149   1.0000      -0.225887        -6.1467
 150   1.0000      -0.213371        -5.8061
 151   1.0000      -0.212709        -5.7881
 152   1.0000      -0.194144        -5.2829
 153   1.0000      -0.154465        -4.2032
 154   0.0000      -0.153470        -4.1761
 155   0.0000      -0.150137        -4.0854
 156   0.0000      -0.140628        -3.8267
 157   0.0000      -0.139392        -3.7930
 158   0.0000      -0.135818        -3.6958

MULLIKEN ATOMIC CHARGES AND SPIN POPULATIONS
--------------------------------------------
   0 Au:    0.129466   -0.199725
   1 Au:    0.344599   -0.215517
   2 Au:    0.351948   -0.051403
   3 Au:    0.330616   -0.078063
   4 Au:   -0.110816   -0.149853
   5 Au:   -0.194526   -0.112339
   6 Au:    0.291003    0.001351
   7 Au:   -0.102685    0.022253
   8 Au:    0.288422   -0.253302
   9 Au:   -0.111731   -0.150026
  10 Au:    0.130355   -0.202007
  11 Au:    0.344957   -0.213310
  12 Au:    0.237362   -0.161614
  13 Au:    0.331271   -0.080934
  14 Au:    0.352665   -0.049020
  15 Mn:   -2.612904    3.893507
Sum of atomic charges         :   -0.0000000

LOEWDIN ATOMIC CHARGES AND SPIN POPULATIONS
-------------------------------------------
   0 Au:    0.016196   -0.146453
   1 Au:    0.077993   -0.214727
   2 Au:    0.057912   -0.074092
   3 Au:    0.111066   -0.124796
   4 Au:   -0.034565   -0.133891
   5 Au:   -0.038963   -0.111163
   6 Au:    0.066323   -0.051848
   7 Au:   -0.071755   -0.052261
   8 Au:    0.067698   -0.228423
   9 Au:   -0.034396   -0.133769
  10 Au:    0.016186   -0.147403
  11 Au:    0.078357   -0.213837
  12 Au:    0.016903   -0.169867
  13 Au:    0.111291   -0.126490
  14 Au:    0.058651   -0.072625
  15 Mn:   -0.498895    4.001645

  Mayer bond orders larger than 0.100000
B(  0-Au,  1-Au) :   0.3568 B(  0-Au,  2-Au) :   0.2460 B(  0-Au,  3-Au) :   0.1068
B(  0-Au,  4-Au) :   0.1770 B(  0-Au,  5-Au) :   0.1784 B(  0-Au,  6-Au) :   0.1598
B(  0-Au, 15-Mn) :   0.4184 B(  1-Au,  4-Au) :   0.2739 B(  1-Au,  5-Au) :   0.2741
B(  1-Au,  7-Au) :   0.2484 B(  2-Au,  3-Au) :   0.2552 B(  2-Au,  6-Au) :   0.1614
B(  2-Au, 14-Au) :   0.2633 B(  2-Au, 15-Mn) :   0.3212 B(  3-Au,  4-Au) :   0.2266
B(  3-Au, 12-Au) :   0.2108 B(  3-Au, 15-Mn) :   0.3909 B(  4-Au,  7-Au) :   0.2552
B(  4-Au,  8-Au) :   0.2871 B(  4-Au, 12-Au) :   0.1773 B(  4-Au, 15-Mn) :   0.4158
B(  5-Au,  6-Au) :   0.3058 B(  5-Au,  7-Au) :   0.2657 B(  5-Au, 10-Au) :   0.1751
B(  5-Au, 11-Au) :   0.2770 B(  5-Au, 15-Mn) :   0.4148 B(  6-Au, 10-Au) :   0.1597
B(  6-Au, 14-Au) :   0.1605 B(  6-Au, 15-Mn) :   0.3924 B(  7-Au,  8-Au) :   0.2603
B(  7-Au,  9-Au) :   0.2565 B(  7-Au, 11-Au) :   0.2483 B(  7-Au, 15-Mn) :   0.1838
B(  8-Au,  9-Au) :   0.2883 B(  8-Au, 12-Au) :   0.3045 B(  9-Au, 10-Au) :   0.1776
B(  9-Au, 11-Au) :   0.2719 B(  9-Au, 12-Au) :   0.1749 B(  9-Au, 13-Au) :   0.2272
B(  9-Au, 15-Mn) :   0.4173 B( 10-Au, 11-Au) :   0.3570 B( 10-Au, 13-Au) :   0.1071
B( 10-Au, 14-Au) :   0.2441 B( 10-Au, 15-Mn) :   0.4188 B( 12-Au, 13-Au) :   0.2121
B( 12-Au, 15-Mn) :   0.3633 B( 13-Au, 14-Au) :   0.2533 B( 13-Au, 15-Mn) :   0.3889
B( 14-Au, 15-Mn) :   0.3254

FINAL SINGLE POINT ENERGY     -3188.171701916231

DIPOLE MOMENT
-------------
                                X             Y             Z
Electronic contribution:      6.48217      21.12800     -16.10898
Nuclear contribution   :     -6.51593     -21.34799      16.35177
                        -----------------------------------------
Total Dipole Moment    :     -0.03376      -0.21999       0.24279
                        -----------------------------------------
Magnitude (a.u.)       :      0.32936
Magnitude (Debye)      :      0.83718

Rotational constants in cm-1:     0.001030     0.000880     0.000856
Rotational constants in MHz :    30.889447    26.371158    25.664053

                             ****ORCA TERMINATED NORMALLY****
TOTAL RUN TIME: 0 days 0 hours 5 minutes 50 seconds 886 msec
