                         Program Version 5.0.3 -  RELEASE  -
|  1> !R2SCAN def2-TZVP SLOWCONV
|  2> !KDIIS
|  3>
|  4> %scf
|  5>   AutoTRAHIter 200
|  6>   maxiter 400
|  7> end
|  8>
|  9>
| 10> %pal nprocs 16 end
| 11>
| 12> %scf
| 13>   AutoTRAHIter 100
| 14>   maxiter 400
| 15> end
| 16>
| 17> *xyzfile 0 5 pbe.xyz
| 18>
| 19> $new_job
| 20>
| 21> !R2SCAN def2-TZVP SLOWCONV
| 22> !KDIIS
| 23>
| 24> %pal nprocs 16 end
| 25>
| 26> %scf
| 27>   AutoTRAHIter 100
| 28>   maxiter 400
| 29> end
| 30>
| 31> *xyzfile 0 3 pbe.xyz
| 32>
| 33>
| 34>
| 35>
| 36>
| 37>                          ****END OF INPUT****
 Total Charge           Charge          ....    0
 Multiplicity           Mult            ....    5
 Number of Electrons    NEL             ....  310
FINAL SINGLE POINT ENERGY     -3188.738370441816

CARTESIAN COORDINATES (ANGSTROEM)
---------------------------------
  Au     9.648387    6.649103    8.705769
  Au    10.170215    8.652146    6.871941
  Au     8.073434    4.992802   10.302537
  Au     7.518664    4.766675    7.621167
  Au     8.046179    7.016567    6.149303
  Au     8.743827    9.436902    9.145969
  Au     8.545969    7.654393   11.180633
  Au     7.680865    9.852417    6.562895
  Au     5.880825    8.425069    5.046942
  Au     5.135070    9.067258    7.675589
  Au     6.136085    9.111675   10.539301
  Au     6.591392   11.173917    8.754773
  Au     5.364778    6.340066    6.850582
  Au     4.278282    7.039985    9.306792
  Au     5.974115    6.461812   11.391803
  Mn     7.007591    7.191954    8.854465

 Multiplicity           Mult            ....    3
 Number of Electrons    NEL             ....  310
 Basis Dimension        Dim             ....  645

ORBITAL ENERGIES
----------------
                 SPIN UP ORBITALS
  NO   OCC          E(Eh)            E(eV)
   0   1.0000    -235.053659     -6396.1352
   1   1.0000     -27.232358      -741.0301
   2   1.0000     -23.279726      -633.4735
   3   1.0000     -23.278795      -633.4482
   4   1.0000     -23.278579      -633.4423
   5   1.0000      -4.130357      -112.3927
   6   1.0000      -4.130340      -112.3923
   7   1.0000      -4.129872      -112.3795
   8   1.0000      -4.129776      -112.3769
   9   1.0000      -4.129673      -112.3741
  10   1.0000      -4.128436      -112.3405
  11   1.0000      -4.123606      -112.2090
  12   1.0000      -4.123532      -112.2070
  13   1.0000      -4.123528      -112.2069
  14   1.0000      -4.122018      -112.1658
  15   1.0000      -4.121836      -112.1609
  16   1.0000      -4.118000      -112.0565
  17   1.0000      -4.111043      -111.8672
  18   1.0000      -4.110597      -111.8550
  19   1.0000      -4.110503      -111.8525
  20   1.0000      -3.254003       -88.5459
  21   1.0000      -2.318917       -63.1009
  22   1.0000      -2.318835       -63.0987
  23   1.0000      -2.318784       -63.0973
  24   1.0000      -2.318691       -63.0948
  25   1.0000      -2.317714       -63.0682
  26   1.0000      -2.317061       -63.0504
  27   1.0000      -2.316809       -63.0436
  28   1.0000      -2.316463       -63.0342
  29   1.0000      -2.316246       -63.0282
  30   1.0000      -2.315900       -63.0189
  31   1.0000      -2.314758       -62.9878
  32   1.0000      -2.314055       -62.9687
  33   1.0000      -2.314046       -62.9684
  34   1.0000      -2.313487       -62.9532
  35   1.0000      -2.313431       -62.9516
  36   1.0000      -2.313103       -62.9427
  37   1.0000      -2.312800       -62.9345
  38   1.0000      -2.312081       -62.9149
  39   1.0000      -2.311627       -62.9026
  40   1.0000      -2.311232       -62.8918
  41   1.0000      -2.310863       -62.8818
  42   1.0000      -2.310651       -62.8760
  43   1.0000      -2.310290       -62.8662
  44   1.0000      -2.309856       -62.8544
  45   1.0000      -2.308389       -62.8145
  46   1.0000      -2.308211       -62.8096
  47   1.0000      -2.307491       -62.7900
  48   1.0000      -2.307329       -62.7856
  49   1.0000      -2.306228       -62.7557
  50   1.0000      -2.305917       -62.7472
  51   1.0000      -2.305871       -62.7459
  52   1.0000      -2.305763       -62.7430
  53   1.0000      -2.305436       -62.7341
  54   1.0000      -2.305369       -62.7323
  55   1.0000      -2.304752       -62.7155
  56   1.0000      -2.299576       -62.5746
  57   1.0000      -2.297316       -62.5131
  58   1.0000      -2.296828       -62.4999
  59   1.0000      -2.296726       -62.4971
  60   1.0000      -2.296258       -62.4843
  61   1.0000      -2.295828       -62.4727
  62   1.0000      -2.295571       -62.4657
  63   1.0000      -2.295458       -62.4626
  64   1.0000      -2.294999       -62.4501
  65   1.0000      -2.294805       -62.4448
  66   1.0000      -2.111699       -57.4623
  67   1.0000      -2.109857       -57.4121
  68   1.0000      -2.109627       -57.4059
  69   1.0000      -0.444349       -12.0913
  70   1.0000      -0.403354       -10.9758
  71   1.0000      -0.398073       -10.8321
  72   1.0000      -0.398007       -10.8303
  73   1.0000      -0.395518       -10.7626
  74   1.0000      -0.390334       -10.6215
  75   1.0000      -0.387205       -10.5364
  76   1.0000      -0.385121       -10.4797
  77   1.0000      -0.379188       -10.3182
  78   1.0000      -0.377548       -10.2736
  79   1.0000      -0.372404       -10.1336
  80   1.0000      -0.372193       -10.1279
  81   1.0000      -0.368922       -10.0389
  82   1.0000      -0.366189        -9.9645
  83   1.0000      -0.365871        -9.9558
  84   1.0000      -0.365258        -9.9392
  85   1.0000      -0.363204        -9.8833
  86   1.0000      -0.363017        -9.8782
  87   1.0000      -0.358496        -9.7552
  88   1.0000      -0.357221        -9.7205
  89   1.0000      -0.356812        -9.7094
  90   1.0000      -0.354837        -9.6556
  91   1.0000      -0.348681        -9.4881
  92   1.0000      -0.344934        -9.3861
  93   1.0000      -0.341681        -9.2976
  94   1.0000      -0.341286        -9.2869
  95   1.0000      -0.340227        -9.2580
  96   1.0000      -0.338716        -9.2169
  97   1.0000      -0.336462        -9.1556
  98   1.0000      -0.335603        -9.1322
  99   1.0000      -0.334626        -9.1056
 100   1.0000      -0.333044        -9.0626
 101   1.0000      -0.327919        -8.9231
 102   1.0000      -0.326433        -8.8827
 103   1.0000      -0.323206        -8.7949
 104   1.0000      -0.321975        -8.7614
 105   1.0000      -0.319193        -8.6857
 106   1.0000      -0.318081        -8.6554
 107   1.0000      -0.316928        -8.6240
 108   1.0000      -0.314362        -8.5542
 109   1.0000      -0.313386        -8.5277
 110   1.0000      -0.303668        -8.2632
 111   1.0000      -0.303528        -8.2594
 112   1.0000      -0.300509        -8.1773
 113   1.0000      -0.297863        -8.1053
 114   1.0000      -0.297633        -8.0990
 115   1.0000      -0.296554        -8.0696
 116   1.0000      -0.294732        -8.0201
 117   1.0000      -0.291085        -7.9208
 118   1.0000      -0.290806        -7.9132
 119   1.0000      -0.287014        -7.8100
 120   1.0000      -0.286181        -7.7874
 121   1.0000      -0.285730        -7.7751
 122   1.0000      -0.285461        -7.7678
 123   1.0000      -0.283582        -7.7167
 124   1.0000      -0.282322        -7.6824
 125   1.0000      -0.281646        -7.6640
 126   1.0000      -0.280219        -7.6251
 127   1.0000      -0.278497        -7.5783
 128   1.0000      -0.277318        -7.5462
 129   1.0000      -0.276288        -7.5182
 130   1.0000      -0.276046        -7.5116
 131   1.0000      -0.273400        -7.4396
 132   1.0000      -0.273312        -7.4372
 133   1.0000      -0.271587        -7.3903
 134   1.0000      -0.269712        -7.3392
 135   1.0000      -0.269123        -7.3232
 136   1.0000      -0.268028        -7.2934
 137   1.0000      -0.267263        -7.2726
 138   1.0000      -0.266014        -7.2386
 139   1.0000      -0.265714        -7.2304
 140   1.0000      -0.264434        -7.1956
 141   1.0000      -0.262354        -7.1390
 142   1.0000      -0.260908        -7.0997
 143   1.0000      -0.260814        -7.0971
 144   1.0000      -0.259104        -7.0506
 145   1.0000      -0.259062        -7.0494
 146   1.0000      -0.257503        -7.0070
 147   1.0000      -0.254983        -6.9385
 148   1.0000      -0.251574        -6.8457
 149   1.0000      -0.249714        -6.7951
 150   1.0000      -0.248261        -6.7555
 151   1.0000      -0.245249        -6.6736
 152   1.0000      -0.244109        -6.6426
 153   1.0000      -0.222144        -6.0448
 154   1.0000      -0.220759        -6.0072
 155   1.0000      -0.206496        -5.6190
 156   0.0000      -0.197689        -5.3794
 157   0.0000      -0.178823        -4.8660
 158   0.0000      -0.145109        -3.9486
 159   0.0000      -0.138520        -3.7693
 160   0.0000      -0.132921        -3.6170

                 SPIN DOWN ORBITALS
  NO   OCC          E(Eh)            E(eV)
   0   1.0000    -235.052795     -6396.1117
   1   1.0000     -27.144091      -738.6283
   2   1.0000     -23.211962      -631.6296
   3   1.0000     -23.211480      -631.6165
   4   1.0000     -23.210698      -631.5952
   5   1.0000      -4.130950      -112.4089
   6   1.0000      -4.130841      -112.4059
   7   1.0000      -4.130486      -112.3962
   8   1.0000      -4.130480      -112.3961
   9   1.0000      -4.129632      -112.3730
  10   1.0000      -4.129150      -112.3599
  11   1.0000      -4.123861      -112.2160
  12   1.0000      -4.123839      -112.2154
  13   1.0000      -4.123778      -112.2137
  14   1.0000      -4.122186      -112.1704
  15   1.0000      -4.122011      -112.1656
  16   1.0000      -4.118715      -112.0759
  17   1.0000      -4.112793      -111.9148
  18   1.0000      -4.112566      -111.9086
  19   1.0000      -4.112477      -111.9062
  20   1.0000      -3.043494       -82.8177
  21   1.0000      -2.319698       -63.1222
  22   1.0000      -2.319486       -63.1164
  23   1.0000      -2.318529       -63.0904
  24   1.0000      -2.318511       -63.0899
  25   1.0000      -2.317868       -63.0724
  26   1.0000      -2.317727       -63.0685
  27   1.0000      -2.317639       -63.0662
  28   1.0000      -2.316647       -63.0392
  29   1.0000      -2.316276       -63.0291
  30   1.0000      -2.315879       -63.0183
  31   1.0000      -2.315507       -63.0081
  32   1.0000      -2.314956       -62.9932
  33   1.0000      -2.314324       -62.9759
  34   1.0000      -2.313887       -62.9641
  35   1.0000      -2.313598       -62.9562
  36   1.0000      -2.313416       -62.9512
  37   1.0000      -2.313126       -62.9434
  38   1.0000      -2.312209       -62.9184
  39   1.0000      -2.311737       -62.9056
  40   1.0000      -2.311176       -62.8903
  41   1.0000      -2.310995       -62.8854
  42   1.0000      -2.310954       -62.8842
  43   1.0000      -2.310231       -62.8646
  44   1.0000      -2.309858       -62.8544
  45   1.0000      -2.308637       -62.8212
  46   1.0000      -2.308595       -62.8201
  47   1.0000      -2.307504       -62.7904
  48   1.0000      -2.307314       -62.7852
  49   1.0000      -2.306579       -62.7652
  50   1.0000      -2.306407       -62.7605
  51   1.0000      -2.306373       -62.7596
  52   1.0000      -2.306315       -62.7580
  53   1.0000      -2.306217       -62.7553
  54   1.0000      -2.305554       -62.7373
  55   1.0000      -2.304805       -62.7169
  56   1.0000      -2.300425       -62.5977
  57   1.0000      -2.299673       -62.5773
  58   1.0000      -2.299269       -62.5663
  59   1.0000      -2.299177       -62.5638
  60   1.0000      -2.298526       -62.5461
  61   1.0000      -2.297394       -62.5153
  62   1.0000      -2.297185       -62.5096
  63   1.0000      -2.296959       -62.5034
  64   1.0000      -2.296699       -62.4964
  65   1.0000      -2.296553       -62.4924
  66   1.0000      -1.903122       -51.7866
  67   1.0000      -1.902278       -51.7636
  68   1.0000      -1.898372       -51.6573
  69   1.0000      -0.441646       -12.0178
  70   1.0000      -0.404975       -11.0199
  71   1.0000      -0.400657       -10.9024
  72   1.0000      -0.397824       -10.8254
  73   1.0000      -0.387381       -10.5412
  74   1.0000      -0.383840       -10.4448
  75   1.0000      -0.382926       -10.4200
  76   1.0000      -0.380740       -10.3605
  77   1.0000      -0.379813       -10.3352
  78   1.0000      -0.377334       -10.2678
  79   1.0000      -0.372880       -10.1466
  80   1.0000      -0.371862       -10.1189
  81   1.0000      -0.369141       -10.0448
  82   1.0000      -0.368163       -10.0182
  83   1.0000      -0.366837        -9.9821
  84   1.0000      -0.364406        -9.9160
  85   1.0000      -0.363375        -9.8879
  86   1.0000      -0.362309        -9.8589
  87   1.0000      -0.359501        -9.7825
  88   1.0000      -0.358053        -9.7431
  89   1.0000      -0.355304        -9.6683
  90   1.0000      -0.353256        -9.6126
  91   1.0000      -0.348669        -9.4878
  92   1.0000      -0.346198        -9.4205
  93   1.0000      -0.342690        -9.3251
  94   1.0000      -0.341937        -9.3046
  95   1.0000      -0.340093        -9.2544
  96   1.0000      -0.338450        -9.2097
  97   1.0000      -0.338313        -9.2060
  98   1.0000      -0.337854        -9.1935
  99   1.0000      -0.332564        -9.0495
 100   1.0000      -0.329354        -8.9622
 101   1.0000      -0.324679        -8.8350
 102   1.0000      -0.323025        -8.7900
 103   1.0000      -0.321644        -8.7524
 104   1.0000      -0.319445        -8.6925
 105   1.0000      -0.316090        -8.6012
 106   1.0000      -0.315591        -8.5877
 107   1.0000      -0.311270        -8.4701
 108   1.0000      -0.309101        -8.4111
 109   1.0000      -0.306783        -8.3480
 110   1.0000      -0.303169        -8.2496
 111   1.0000      -0.302408        -8.2289
 112   1.0000      -0.299058        -8.1378
 113   1.0000      -0.298173        -8.1137
 114   1.0000      -0.297715        -8.1012
 115   1.0000      -0.297417        -8.0931
 116   1.0000      -0.292584        -7.9616
 117   1.0000      -0.292395        -7.9565
 118   1.0000      -0.290164        -7.8958
 119   1.0000      -0.289024        -7.8648
 120   1.0000      -0.287354        -7.8193
 121   1.0000      -0.286319        -7.7911
 122   1.0000      -0.284880        -7.7520
 123   1.0000      -0.283796        -7.7225
 124   1.0000      -0.283680        -7.7193
 125   1.0000      -0.283167        -7.7054
 126   1.0000      -0.280833        -7.6418
 127   1.0000      -0.279218        -7.5979
 128   1.0000      -0.277935        -7.5630
 129   1.0000      -0.277129        -7.5411
 130   1.0000      -0.276033        -7.5112
 131   1.0000      -0.275039        -7.4842
 132   1.0000      -0.272657        -7.4194
 133   1.0000      -0.271223        -7.3804
 134   1.0000      -0.270722        -7.3667
 135   1.0000      -0.267668        -7.2836
 136   1.0000      -0.267264        -7.2726
 137   1.0000      -0.265238        -7.2175
 138   1.0000      -0.263775        -7.1777
 139   1.0000      -0.263086        -7.1589
 140   1.0000      -0.262734        -7.1494
 141   1.0000      -0.260707        -7.0942
 142   1.0000      -0.258416        -7.0319
 143   1.0000      -0.254511        -6.9256
 144   1.0000      -0.253592        -6.9006
 145   1.0000      -0.253349        -6.8940
 146   1.0000      -0.248460        -6.7609
 147   1.0000      -0.246572        -6.7096
 148   1.0000      -0.232744        -6.3333
 149   1.0000      -0.229468        -6.2441
 150   1.0000      -0.216119        -5.8809
 151   1.0000      -0.214863        -5.8467
 152   1.0000      -0.194877        -5.3029
 153   1.0000      -0.152952        -4.1620
 154   0.0000      -0.150090        -4.0842
 155   0.0000      -0.145603        -3.9621
 156   0.0000      -0.132886        -3.6160
 157   0.0000      -0.132675        -3.6103
 158   0.0000      -0.122187        -3.3249

MULLIKEN ATOMIC CHARGES AND SPIN POPULATIONS
--------------------------------------------
   0 Au:    0.132179   -0.232621
   1 Au:    0.295205   -0.311954
   2 Au:    0.311922   -0.064641
   3 Au:    0.314711   -0.065770
   4 Au:   -0.084856   -0.143851
   5 Au:   -0.166324   -0.101641
   6 Au:    0.263082    0.004200
   7 Au:   -0.118657    0.023985
   8 Au:    0.278314   -0.195151
   9 Au:   -0.085899   -0.144180
  10 Au:    0.132548   -0.235901
  11 Au:    0.296376   -0.307565
  12 Au:    0.196703   -0.223121
  13 Au:    0.315605   -0.068889
  14 Au:    0.312892   -0.060886
  15 Mn:   -2.393801    4.127987
Sum of atomic charges         :    0.0000000

LOEWDIN ATOMIC CHARGES AND SPIN POPULATIONS
-------------------------------------------
   0 Au:    0.008514   -0.173667
   1 Au:    0.056731   -0.274180
   2 Au:    0.050295   -0.080665
   3 Au:    0.112016   -0.122623
   4 Au:   -0.035734   -0.139585
   5 Au:   -0.039841   -0.126989
   6 Au:    0.061648   -0.058609
   7 Au:   -0.071822   -0.052765
   8 Au:    0.078253   -0.185704
   9 Au:   -0.035601   -0.139452
  10 Au:    0.008346   -0.174904
  11 Au:    0.057421   -0.272248
  12 Au:    0.002917   -0.202865
  13 Au:    0.112240   -0.124401
  14 Au:    0.051237   -0.078627
  15 Mn:   -0.416620    4.207286

  Mayer bond orders larger than 0.100000
B(  0-Au,  1-Au) :   0.3638 B(  0-Au,  2-Au) :   0.2350 B(  0-Au,  4-Au) :   0.1690
B(  0-Au,  5-Au) :   0.1575 B(  0-Au,  6-Au) :   0.1493 B(  0-Au, 15-Mn) :   0.3895
B(  1-Au,  4-Au) :   0.2681 B(  1-Au,  5-Au) :   0.2540 B(  1-Au,  7-Au) :   0.2113
B(  2-Au,  3-Au) :   0.2464 B(  2-Au,  6-Au) :   0.1455 B(  2-Au, 14-Au) :   0.2642
B(  2-Au, 15-Mn) :   0.3094 B(  3-Au,  4-Au) :   0.2203 B(  3-Au, 12-Au) :   0.1964
B(  3-Au, 15-Mn) :   0.4065 B(  4-Au,  7-Au) :   0.2416 B(  4-Au,  8-Au) :   0.2832
B(  4-Au, 12-Au) :   0.1613 B(  4-Au, 15-Mn) :   0.3892 B(  5-Au,  6-Au) :   0.3055
B(  5-Au,  7-Au) :   0.2580 B(  5-Au, 10-Au) :   0.1539 B(  5-Au, 11-Au) :   0.2569
B(  5-Au, 15-Mn) :   0.4179 B(  6-Au, 10-Au) :   0.1493 B(  6-Au, 14-Au) :   0.1443
B(  6-Au, 15-Mn) :   0.3830 B(  7-Au,  8-Au) :   0.2414 B(  7-Au,  9-Au) :   0.2435
B(  7-Au, 11-Au) :   0.2116 B(  7-Au, 15-Mn) :   0.2077 B(  8-Au,  9-Au) :   0.2845
B(  8-Au, 12-Au) :   0.3043 B(  9-Au, 10-Au) :   0.1697 B(  9-Au, 11-Au) :   0.2660
B(  9-Au, 12-Au) :   0.1589 B(  9-Au, 13-Au) :   0.2208 B(  9-Au, 15-Mn) :   0.3907
B( 10-Au, 11-Au) :   0.3649 B( 10-Au, 14-Au) :   0.2331 B( 10-Au, 15-Mn) :   0.3890
B( 12-Au, 13-Au) :   0.1979 B( 12-Au, 15-Mn) :   0.3312 B( 13-Au, 14-Au) :   0.2447
B( 13-Au, 15-Mn) :   0.4042 B( 14-Au, 15-Mn) :   0.3149

FINAL SINGLE POINT ENERGY     -3188.690737707772

DIPOLE MOMENT
-------------
                                X             Y             Z
Electronic contribution:      6.34741      20.99648     -16.18568
Nuclear contribution   :     -6.51593     -21.34799      16.35177
                        -----------------------------------------
Total Dipole Moment    :     -0.16851      -0.35151       0.16609
                        -----------------------------------------
Magnitude (a.u.)       :      0.42372
Magnitude (Debye)      :      1.07702

Rotational constants in cm-1:     0.001030     0.000880     0.000856
Rotational constants in MHz :    30.889447    26.371158    25.664053

                             ****ORCA TERMINATED NORMALLY****
TOTAL RUN TIME: 0 days 0 hours 7 minutes 50 seconds 617 msec
