                         Program Version 5.0.3 -  RELEASE  -
|  1> %pal nprocs 1 end
|  2>
|  3> !PBE def2-TZVP OPT UNO
|  4> !SLOWCONV KDIIS
|  5>
|  6> %geom maxiter 300 end
|  7>
|  8> *xyzfile 0 5 3.xyz                           ****END OF INPUT****
 Total Charge           Charge          ....    0
 Multiplicity           Mult            ....    5
 Number of Electrons    NEL             ....  254
FINAL SINGLE POINT ENERGY     -2893.400218756143
FINAL SINGLE POINT ENERGY     -2893.401097212329
FINAL SINGLE POINT ENERGY     -2893.401901928755
FINAL SINGLE POINT ENERGY     -2893.402037484433
FINAL SINGLE POINT ENERGY     -2893.402310584207
FINAL SINGLE POINT ENERGY     -2893.402381877236
FINAL SINGLE POINT ENERGY     -2893.402442011813
FINAL SINGLE POINT ENERGY     -2893.402476895489
FINAL SINGLE POINT ENERGY     -2893.402500932496
FINAL SINGLE POINT ENERGY     -2893.402525743591
FINAL SINGLE POINT ENERGY     -2893.402547154961
FINAL SINGLE POINT ENERGY     -2893.402558182790
FINAL SINGLE POINT ENERGY     -2893.402563961379
                    ***********************HURRAY********************

CARTESIAN COORDINATES (ANGSTROEM)
---------------------------------
  Au     6.513322    8.842332    3.910751
  Au     8.236344    6.749745    4.132713
  Au     7.563026    4.798717    5.794669
  Au     6.230482    3.520495    7.820631
  Au     4.808190    5.594234    6.808095
  Au     4.528511   10.509245    4.726152
  Au     4.296739    8.006768    5.768552
  Au     5.362129    7.848761    8.444327
  Au     7.367239    5.900811    8.595750
  Au     8.175991    8.448817    8.218433
  Au     8.676341    9.240011    5.596556
  Au     6.302923   10.035504    6.803983
  Fe     6.827670    7.307423    6.247159

 Multiplicity           Mult            ....    5
 Number of Electrons    NEL             ....  254
 Basis Dimension        Dim             ....  525

ORBITAL ENERGIES
----------------
                 SPIN UP ORBITALS
  NO   OCC          E(Eh)            E(eV)
   0   1.0000    -254.765827     -6932.5306
   1   1.0000     -29.606981      -805.6469
   2   1.0000     -25.545565      -695.1302
   3   1.0000     -25.541298      -695.0141
   4   1.0000     -25.538733      -694.9442
   5   1.0000      -4.034705      -109.7899
   6   1.0000      -4.029796      -109.6563
   7   1.0000      -4.027333      -109.5893
   8   1.0000      -4.027101      -109.5830
   9   1.0000      -4.026052      -109.5545
  10   1.0000      -4.024576      -109.5143
  11   1.0000      -4.024383      -109.5090
  12   1.0000      -4.021673      -109.4353
  13   1.0000      -4.021127      -109.4204
  14   1.0000      -4.020802      -109.4116
  15   1.0000      -4.019443      -109.3746
  16   1.0000      -4.017362      -109.3180
  17   1.0000      -3.386196       -92.1431
  18   1.0000      -2.253641       -61.3247
  19   1.0000      -2.247858       -61.1673
  20   1.0000      -2.245917       -61.1145
  21   1.0000      -2.245293       -61.0975
  22   1.0000      -2.244717       -61.0819
  23   1.0000      -2.243760       -61.0558
  24   1.0000      -2.243649       -61.0528
  25   1.0000      -2.242286       -61.0157
  26   1.0000      -2.241853       -61.0039
  27   1.0000      -2.241716       -61.0002
  28   1.0000      -2.240131       -60.9571
  29   1.0000      -2.239949       -60.9521
  30   1.0000      -2.239469       -60.9391
  31   1.0000      -2.239192       -60.9315
  32   1.0000      -2.238846       -60.9221
  33   1.0000      -2.238642       -60.9166
  34   1.0000      -2.237615       -60.8886
  35   1.0000      -2.237292       -60.8798
  36   1.0000      -2.236989       -60.8716
  37   1.0000      -2.236339       -60.8539
  38   1.0000      -2.236051       -60.8460
  39   1.0000      -2.235597       -60.8337
  40   1.0000      -2.234910       -60.8150
  41   1.0000      -2.234493       -60.8036
  42   1.0000      -2.234337       -60.7994
  43   1.0000      -2.232669       -60.7540
  44   1.0000      -2.232603       -60.7522
  45   1.0000      -2.232299       -60.7440
  46   1.0000      -2.232136       -60.7395
  47   1.0000      -2.231956       -60.7346
  48   1.0000      -2.231732       -60.7285
  49   1.0000      -2.231147       -60.7126
  50   1.0000      -2.229290       -60.6621
  51   1.0000      -2.229158       -60.6585
  52   1.0000      -2.227154       -60.6040
  53   1.0000      -2.224808       -60.5401
  54   1.0000      -2.207189       -60.0607
  55   1.0000      -2.198572       -59.8262
  56   1.0000      -2.192752       -59.6678
  57   1.0000      -0.429694       -11.6926
  58   1.0000      -0.389106       -10.5881
  59   1.0000      -0.386532       -10.5181
  60   1.0000      -0.380676       -10.3587
  61   1.0000      -0.377363       -10.2686
  62   1.0000      -0.372293       -10.1306
  63   1.0000      -0.367821       -10.0089
  64   1.0000      -0.363933        -9.9031
  65   1.0000      -0.354309        -9.6412
  66   1.0000      -0.352974        -9.6049
  67   1.0000      -0.347409        -9.4535
  68   1.0000      -0.345671        -9.4062
  69   1.0000      -0.344130        -9.3643
  70   1.0000      -0.338412        -9.2087
  71   1.0000      -0.336161        -9.1474
  72   1.0000      -0.334902        -9.1132
  73   1.0000      -0.333669        -9.0796
  74   1.0000      -0.331231        -9.0132
  75   1.0000      -0.330914        -9.0046
  76   1.0000      -0.329507        -8.9663
  77   1.0000      -0.328108        -8.9283
  78   1.0000      -0.325211        -8.8495
  79   1.0000      -0.320766        -8.7285
  80   1.0000      -0.318662        -8.6712
  81   1.0000      -0.318116        -8.6564
  82   1.0000      -0.315244        -8.5782
  83   1.0000      -0.309917        -8.4333
  84   1.0000      -0.303655        -8.2629
  85   1.0000      -0.303285        -8.2528
  86   1.0000      -0.299051        -8.1376
  87   1.0000      -0.294004        -8.0002
  88   1.0000      -0.292240        -7.9523
  89   1.0000      -0.291606        -7.9350
  90   1.0000      -0.288592        -7.8530
  91   1.0000      -0.286904        -7.8071
  92   1.0000      -0.284875        -7.7518
  93   1.0000      -0.282746        -7.6939
  94   1.0000      -0.280556        -7.6343
  95   1.0000      -0.280145        -7.6231
  96   1.0000      -0.277878        -7.5614
  97   1.0000      -0.277249        -7.5443
  98   1.0000      -0.274303        -7.4642
  99   1.0000      -0.271523        -7.3885
 100   1.0000      -0.270837        -7.3698
 101   1.0000      -0.268903        -7.3172
 102   1.0000      -0.267581        -7.2813
 103   1.0000      -0.267485        -7.2786
 104   1.0000      -0.265969        -7.2374
 105   1.0000      -0.264846        -7.2068
 106   1.0000      -0.263995        -7.1837
 107   1.0000      -0.262081        -7.1316
 108   1.0000      -0.259464        -7.0604
 109   1.0000      -0.258526        -7.0349
 110   1.0000      -0.258212        -7.0263
 111   1.0000      -0.256345        -6.9755
 112   1.0000      -0.255872        -6.9626
 113   1.0000      -0.255012        -6.9392
 114   1.0000      -0.254252        -6.9186
 115   1.0000      -0.253270        -6.8918
 116   1.0000      -0.252018        -6.8578
 117   1.0000      -0.249320        -6.7844
 118   1.0000      -0.248982        -6.7751
 119   1.0000      -0.247309        -6.7296
 120   1.0000      -0.245823        -6.6892
 121   1.0000      -0.240655        -6.5486
 122   1.0000      -0.239130        -6.5071
 123   1.0000      -0.237883        -6.4731
 124   1.0000      -0.234885        -6.3916
 125   1.0000      -0.232621        -6.3299
 126   1.0000      -0.219875        -5.9831
 127   1.0000      -0.194606        -5.2955
 128   1.0000      -0.184161        -5.0113
 129   0.0000      -0.166897        -4.5415
 130   0.0000      -0.145284        -3.9534
 131   0.0000      -0.136500        -3.7144
 132   0.0000      -0.135092        -3.6760
 133   0.0000      -0.115557        -3.1445

                 SPIN DOWN ORBITALS
  NO   OCC          E(Eh)            E(eV)
   0   1.0000    -254.765095     -6932.5107
   1   1.0000     -29.546048      -803.9888
   2   1.0000     -25.497356      -693.8183
   3   1.0000     -25.495834      -693.7769
   4   1.0000     -25.494329      -693.7360
   5   1.0000      -4.033934      -109.7689
   6   1.0000      -4.029304      -109.6429
   7   1.0000      -4.026961      -109.5792
   8   1.0000      -4.026261      -109.5601
   9   1.0000      -4.025622      -109.5427
  10   1.0000      -4.023480      -109.4845
  11   1.0000      -4.023212      -109.4772
  12   1.0000      -4.021067      -109.4188
  13   1.0000      -4.021023      -109.4176
  14   1.0000      -4.020054      -109.3912
  15   1.0000      -4.017843      -109.3311
  16   1.0000      -4.017165      -109.3126
  17   1.0000      -3.248799       -88.4043
  18   1.0000      -2.252610       -61.2966
  19   1.0000      -2.246552       -61.1318
  20   1.0000      -2.245037       -61.0906
  21   1.0000      -2.244226       -61.0685
  22   1.0000      -2.243964       -61.0614
  23   1.0000      -2.243094       -61.0377
  24   1.0000      -2.242469       -61.0207
  25   1.0000      -2.241939       -61.0063
  26   1.0000      -2.241284       -60.9884
  27   1.0000      -2.239917       -60.9512
  28   1.0000      -2.239834       -60.9490
  29   1.0000      -2.239149       -60.9303
  30   1.0000      -2.238831       -60.9217
  31   1.0000      -2.238438       -60.9110
  32   1.0000      -2.238214       -60.9049
  33   1.0000      -2.237691       -60.8907
  34   1.0000      -2.237075       -60.8739
  35   1.0000      -2.236682       -60.8632
  36   1.0000      -2.236414       -60.8559
  37   1.0000      -2.235546       -60.8323
  38   1.0000      -2.235179       -60.8223
  39   1.0000      -2.234402       -60.8012
  40   1.0000      -2.234260       -60.7973
  41   1.0000      -2.233863       -60.7865
  42   1.0000      -2.233020       -60.7636
  43   1.0000      -2.232147       -60.7398
  44   1.0000      -2.231947       -60.7344
  45   1.0000      -2.231518       -60.7227
  46   1.0000      -2.231370       -60.7187
  47   1.0000      -2.231212       -60.7144
  48   1.0000      -2.230811       -60.7035
  49   1.0000      -2.230470       -60.6942
  50   1.0000      -2.228947       -60.6527
  51   1.0000      -2.228738       -60.6470
  52   1.0000      -2.226943       -60.5982
  53   1.0000      -2.223562       -60.5062
  54   1.0000      -2.066544       -56.2335
  55   1.0000      -2.065466       -56.2042
  56   1.0000      -2.063171       -56.1417
  57   1.0000      -0.424785       -11.5590
  58   1.0000      -0.385693       -10.4952
  59   1.0000      -0.384022       -10.4498
  60   1.0000      -0.376066       -10.2333
  61   1.0000      -0.371794       -10.1170
  62   1.0000      -0.365221        -9.9382
  63   1.0000      -0.359773        -9.7899
  64   1.0000      -0.355429        -9.6717
  65   1.0000      -0.350909        -9.5487
  66   1.0000      -0.348275        -9.4770
  67   1.0000      -0.345023        -9.3885
  68   1.0000      -0.342731        -9.3262
  69   1.0000      -0.340201        -9.2573
  70   1.0000      -0.337049        -9.1716
  71   1.0000      -0.334219        -9.0946
  72   1.0000      -0.330696        -8.9987
  73   1.0000      -0.330154        -8.9840
  74   1.0000      -0.328983        -8.9521
  75   1.0000      -0.325491        -8.8570
  76   1.0000      -0.323637        -8.8066
  77   1.0000      -0.322307        -8.7704
  78   1.0000      -0.320256        -8.7146
  79   1.0000      -0.315896        -8.5960
  80   1.0000      -0.312229        -8.4962
  81   1.0000      -0.308658        -8.3990
  82   1.0000      -0.306470        -8.3395
  83   1.0000      -0.305593        -8.3156
  84   1.0000      -0.302313        -8.2264
  85   1.0000      -0.297788        -8.1032
  86   1.0000      -0.292519        -7.9599
  87   1.0000      -0.291651        -7.9362
  88   1.0000      -0.290596        -7.9075
  89   1.0000      -0.288474        -7.8498
  90   1.0000      -0.287059        -7.8113
  91   1.0000      -0.283175        -7.7056
  92   1.0000      -0.281237        -7.6528
  93   1.0000      -0.280635        -7.6365
  94   1.0000      -0.276428        -7.5220
  95   1.0000      -0.275939        -7.5087
  96   1.0000      -0.274062        -7.4576
  97   1.0000      -0.271861        -7.3977
  98   1.0000      -0.270368        -7.3571
  99   1.0000      -0.269460        -7.3324
 100   1.0000      -0.268381        -7.3030
 101   1.0000      -0.266843        -7.2612
 102   1.0000      -0.265971        -7.2374
 103   1.0000      -0.265622        -7.2279
 104   1.0000      -0.262811        -7.1515
 105   1.0000      -0.261391        -7.1128
 106   1.0000      -0.259573        -7.0633
 107   1.0000      -0.257871        -7.0170
 108   1.0000      -0.257207        -6.9990
 109   1.0000      -0.255297        -6.9470
 110   1.0000      -0.254085        -6.9140
 111   1.0000      -0.252973        -6.8837
 112   1.0000      -0.252483        -6.8704
 113   1.0000      -0.251459        -6.8426
 114   1.0000      -0.249500        -6.7892
 115   1.0000      -0.247250        -6.7280
 116   1.0000      -0.242712        -6.6045
 117   1.0000      -0.240729        -6.5506
 118   1.0000      -0.237549        -6.4640
 119   1.0000      -0.235625        -6.4117
 120   1.0000      -0.233394        -6.3510
 121   1.0000      -0.223800        -6.0899
 122   1.0000      -0.203916        -5.5488
 123   1.0000      -0.199160        -5.4194
 124   1.0000      -0.190974        -5.1967
 125   0.0000      -0.165586        -4.5058
 126   0.0000      -0.163998        -4.4626
 127   0.0000      -0.162826        -4.4307
 128   0.0000      -0.157171        -4.2768
 129   0.0000      -0.153049        -4.1647

MULLIKEN ATOMIC CHARGES AND SPIN POPULATIONS
--------------------------------------------
   0 Au:    0.016511    0.149434
   1 Au:    0.286186    0.069212
   2 Au:    0.018429    0.199633
   3 Au:    0.399423    0.066351
   4 Au:    0.059500    0.087674
   5 Au:    0.415568    0.073003
   6 Au:    0.032690    0.002426
   7 Au:    0.288813   -0.077483
   8 Au:   -0.002670    0.144854
   9 Au:    0.364794   -0.016097
  10 Au:    0.249941    0.061282
  11 Au:   -0.048051    0.087667
  12 Fe:   -2.081136    3.152043
Sum of atomic charges         :   -0.0000000

LOEWDIN ATOMIC CHARGES AND SPIN POPULATIONS
-------------------------------------------
   0 Au:   -0.022842    0.102918
   1 Au:    0.105175    0.085069
   2 Au:    0.010222    0.142683
   3 Au:    0.086469    0.074041
   4 Au:    0.011608    0.065066
   5 Au:    0.113700    0.064364
   6 Au:    0.039010    0.014681
   7 Au:    0.079767   -0.024433
   8 Au:   -0.020256    0.081536
   9 Au:    0.100912    0.002307
  10 Au:    0.074969    0.048922
  11 Au:   -0.045057    0.057170
  12 Fe:   -0.533676    3.285677

  Mayer bond orders larger than 0.100000
B(  0-Au,  1-Au) :   0.3153 B(  0-Au,  5-Au) :   0.3651 B(  0-Au,  6-Au) :   0.1673
B(  0-Au, 10-Au) :   0.2301 B(  0-Au, 11-Au) :   0.1416 B(  0-Au, 12-Fe) :   0.4516
B(  1-Au,  2-Au) :   0.3614 B(  1-Au, 10-Au) :   0.1133 B(  1-Au, 12-Fe) :   0.5865
B(  2-Au,  3-Au) :   0.2995 B(  2-Au,  4-Au) :   0.1196 B(  2-Au,  8-Au) :   0.1087
B(  2-Au, 12-Fe) :   0.6230 B(  3-Au,  4-Au) :   0.4065 B(  3-Au,  8-Au) :   0.3207
B(  4-Au,  6-Au) :   0.4739 B(  4-Au,  7-Au) :   0.1466 B(  4-Au,  8-Au) :   0.1517
B(  4-Au, 12-Fe) :   0.4844 B(  5-Au,  6-Au) :   0.3921 B(  5-Au, 11-Au) :   0.3033
B(  6-Au,  7-Au) :   0.1530 B(  6-Au, 11-Au) :   0.1847 B(  6-Au, 12-Fe) :   0.5147
B(  7-Au,  8-Au) :   0.2212 B(  7-Au,  9-Au) :   0.1286 B(  7-Au, 11-Au) :   0.1539
B(  7-Au, 12-Fe) :   0.5876 B(  8-Au,  9-Au) :   0.3458 B(  8-Au, 12-Fe) :   0.4909
B(  9-Au, 10-Au) :   0.2044 B(  9-Au, 11-Au) :   0.2524 B(  9-Au, 12-Fe) :   0.4728
B( 10-Au, 11-Au) :   0.2728 B( 10-Au, 12-Fe) :   0.5094 B( 11-Au, 12-Fe) :   0.4758

FINAL SINGLE POINT ENERGY     -2893.402566703475

DIPOLE MOMENT
-------------
                                X             Y             Z
Electronic contribution:    -12.51248       5.96888       5.35775
Nuclear contribution   :     12.27459      -5.72813      -5.24719
                        -----------------------------------------
Total Dipole Moment    :     -0.23789       0.24076       0.11056
                        -----------------------------------------
Magnitude (a.u.)       :      0.35606
Magnitude (Debye)      :      0.90503

Rotational constants in cm-1:     0.001747     0.001060     0.001012
Rotational constants in MHz :    52.374164    31.789072    30.329337

                             ****ORCA TERMINATED NORMALLY****
TOTAL RUN TIME: 0 days 2 hours 46 minutes 1 seconds 971 msec
