                         Program Version 5.0.3 -  RELEASE  -
|  1> !CASSCF def2-TZVP def2-TZVP/C
|  2> !MOREAD RIJCOSX
|  3> %maxcore 6000
|  4> %moinp "pbe.qro"
|  5> %pal nprocs 2 end
|  6>
|  7> %casscf
|  8>  mult 5,3
|  9>  bweight 1,1
| 10>  nroots 5,45
| 11>  nel 6
| 12>  norb 5
| 13> end
| 14>
| 15>
| 16> *xyzfile 0 5 pbe.xyz
| 17>
| 18>
| 19>                          ****END OF INPUT****

CARTESIAN COORDINATES (ANGSTROEM)
---------------------------------
  Au    10.061932    2.863342    7.278145
  Au    11.600888    4.974662    7.573515
  Au     8.598929    4.855320    8.567224
  Au    13.825454    6.275031    8.049339
  Au     9.314092    4.804353    5.415430
  Au     7.965973    7.088525    5.173839
  Au    11.793561    7.955567    7.576102
  Au     7.295993    7.136462    8.136776
  Au     9.553844    9.241498    7.057204
  Au     6.913903    9.300731    6.458050
  Fe     9.632895    6.693393    7.114578

 Total Charge           Charge          ....    0
 Multiplicity           Mult            ....    5
 Number of Electrons    NEL             ....  216
 Basis Dimension        Dim             ....  445

ORBITAL ENERGIES
----------------

  NO   OCC          E(Eh)            E(eV)
   0   2.0000    -261.378958     -7112.4830
   1   2.0000     -31.945211      -869.2734
   2   2.0000     -27.424977      -746.2716
   3   2.0000     -27.424954      -746.2709
   4   2.0000     -27.424276      -746.2525
   5   2.0000      -4.725009      -128.5740
   6   2.0000      -4.713902      -128.2718
   7   2.0000      -4.711622      -128.2098
   8   2.0000      -4.711527      -128.2072
   9   2.0000      -4.711314      -128.2014
  10   2.0000      -4.706148      -128.0608
  11   2.0000      -4.706095      -128.0594
  12   2.0000      -4.702769      -127.9689
  13   2.0000      -4.699814      -127.8884
  14   2.0000      -4.697886      -127.8360
  15   2.0000      -4.179531      -113.7308
  16   2.0000      -2.766012       -75.2670
  17   2.0000      -2.763864       -75.2086
  18   2.0000      -2.761132       -75.1342
  19   2.0000      -2.758715       -75.0684
  20   2.0000      -2.757902       -75.0463
  21   2.0000      -2.756031       -74.9954
  22   2.0000      -2.752959       -74.9118
  23   2.0000      -2.751201       -74.8640
  24   2.0000      -2.750852       -74.8545
  25   2.0000      -2.749386       -74.8146
  26   2.0000      -2.748166       -74.7814
  27   2.0000      -2.747760       -74.7704
  28   2.0000      -2.746642       -74.7399
  29   2.0000      -2.746539       -74.7371
  30   2.0000      -2.746309       -74.7309
  31   2.0000      -2.743439       -74.6528
  32   2.0000      -2.742948       -74.6394
  33   2.0000      -2.742844       -74.6366
  34   2.0000      -2.742555       -74.6287
  35   2.0000      -2.741585       -74.6023
  36   2.0000      -2.741199       -74.5918
  37   2.0000      -2.740195       -74.5645
  38   2.0000      -2.739846       -74.5550
  39   2.0000      -2.738951       -74.5306
  40   2.0000      -2.738117       -74.5079
  41   2.0000      -2.737512       -74.4915
  42   2.0000      -2.735202       -74.4286
  43   2.0000      -2.733799       -74.3904
  44   2.0000      -2.733220       -74.3747
  45   2.0000      -2.732693       -74.3603
  46   2.0000      -2.732640       -74.3589
  47   2.0000      -2.731510       -74.3282
  48   2.0000      -2.729375       -74.2701
  49   2.0000      -0.563101       -15.3227
  50   2.0000      -0.559188       -15.2163
  51   2.0000      -0.550767       -14.9871
  52   2.0000      -0.543560       -14.7910
  53   2.0000      -0.540924       -14.7193
  54   2.0000      -0.538755       -14.6603
  55   2.0000      -0.530920       -14.4471
  56   2.0000      -0.529010       -14.3951
  57   2.0000      -0.522998       -14.2315
  58   2.0000      -0.517067       -14.0701
  59   2.0000      -0.516598       -14.0574
  60   2.0000      -0.511200       -13.9104
  61   2.0000      -0.506446       -13.7811
  62   2.0000      -0.506169       -13.7736
  63   2.0000      -0.504770       -13.7355
  64   2.0000      -0.501358       -13.6426
  65   2.0000      -0.500069       -13.6076
  66   2.0000      -0.493589       -13.4312
  67   2.0000      -0.491534       -13.3753
  68   2.0000      -0.487257       -13.2589
  69   2.0000      -0.485876       -13.2214
  70   2.0000      -0.483126       -13.1465
  71   2.0000      -0.479615       -13.0510
  72   2.0000      -0.474075       -12.9002
  73   2.0000      -0.468290       -12.7428
  74   2.0000      -0.467869       -12.7314
  75   2.0000      -0.464142       -12.6299
  76   2.0000      -0.463774       -12.6199
  77   2.0000      -0.462317       -12.5803
  78   2.0000      -0.459876       -12.5139
  79   2.0000      -0.457731       -12.4555
  80   2.0000      -0.453132       -12.3303
  81   2.0000      -0.451798       -12.2941
  82   2.0000      -0.450939       -12.2707
  83   2.0000      -0.450298       -12.2532
  84   2.0000      -0.447407       -12.1746
  85   2.0000      -0.442072       -12.0294
  86   2.0000      -0.440272       -11.9804
  87   2.0000      -0.436911       -11.8890
  88   2.0000      -0.435145       -11.8409
  89   2.0000      -0.432737       -11.7754
  90   2.0000      -0.432318       -11.7640
  91   2.0000      -0.430452       -11.7132
  92   2.0000      -0.428864       -11.6700
  93   2.0000      -0.428704       -11.6656
  94   2.0000      -0.421965       -11.4823
  95   2.0000      -0.417748       -11.3675
  96   2.0000      -0.416393       -11.3306
  97   2.0000      -0.407256       -11.0820
  98   2.0000      -0.397162       -10.8073
  99   2.0000      -0.393989       -10.7210
 100   2.0000      -0.361158        -9.8276
 101   2.0000      -0.344679        -9.3792
 102   2.0000      -0.274341        -7.4652
 103   2.0000      -0.254940        -6.9373
 104   2.0000      -0.246905        -6.7186
 105   1.2000      -0.254357        -6.9214
 106   1.2000      -0.257143        -6.9972
 107   1.2000      -0.254353        -6.9213
 108   1.2000      -0.261869        -7.1258
 109   1.2000      -0.255696        -6.9578
 110   0.0000      -0.022524        -0.6129
 111   0.0000      -0.011846        -0.3223
 112   0.0000       0.001726         0.0470
 113   0.0000       0.008130         0.2212
 114   0.0000       0.029511         0.8030

MULLIKEN ATOMIC CHARGES AND SPIN DENSITIES
------------------------------------------
   0 Au:    0.427946    0.002928
   1 Au:   -0.694403    0.009103
   2 Au:    0.132267    0.010455
   3 Au:    0.449775    0.002280
   4 Au:    0.134967    0.010442
   5 Au:    0.083804    0.009624
   6 Au:   -0.071160    0.010334
   7 Au:    0.084570    0.009621
   8 Au:    0.156358    0.010937
   9 Au:    0.233382    0.002798
  10 Fe:   -0.937506    2.921479
Sum of atomic charges       :    0.0000000

LOEWDIN ATOMIC CHARGES AND SPIN DENSITIES
-----------------------------------------
   0 Au:    0.141373    0.003459
   1 Au:   -0.168168    0.013442
   2 Au:    0.001448    0.013515
   3 Au:    0.138328    0.002850
   4 Au:    0.001682    0.013504
   5 Au:   -0.040865    0.013180
   6 Au:   -0.042780    0.014608
   7 Au:   -0.041201    0.013179
   8 Au:   -0.039303    0.014632
   9 Au:    0.093235    0.003409
  10 Fe:   -0.043750    2.894221

  Mayer bond orders larger than 0.100000
B(  0-Au,  1-Au) :   0.5865 B(  0-Au,  2-Au) :   0.1351 B(  0-Au,  4-Au) :   0.1335
B(  1-Au,  2-Au) :   0.1314 B(  1-Au,  3-Au) :   0.6355 B(  1-Au,  4-Au) :   0.1314
B(  1-Au,  6-Au) :   0.3661 B(  1-Au, 10-Fe) :   0.2856 B(  2-Au,  7-Au) :   0.5230
B(  2-Au, 10-Fe) :   0.5353 B(  3-Au,  6-Au) :   0.2956 B(  4-Au,  5-Au) :   0.5224
B(  4-Au, 10-Fe) :   0.5350 B(  5-Au,  7-Au) :   0.1224 B(  5-Au,  9-Au) :   0.3068
B(  5-Au, 10-Fe) :   0.4688 B(  6-Au,  8-Au) :   0.4398 B(  6-Au, 10-Fe) :   0.6005
B(  7-Au,  9-Au) :   0.3070 B(  7-Au, 10-Fe) :   0.4683 B(  8-Au,  9-Au) :   0.2976
B(  8-Au, 10-Fe) :   0.5189

FINAL SINGLE POINT ENERGY     -2610.510164953706

DIPOLE MOMENT
-------------
                                X             Y             Z
Electronic contribution:      2.39977      -9.83049       0.57002
Nuclear contribution   :     -2.25609       9.23632      -0.52970
                        -----------------------------------------
Total Dipole Moment    :      0.14368      -0.59416       0.04032
                        -----------------------------------------
Magnitude (a.u.)       :      0.61262
Magnitude (Debye)      :      1.55715

Rotational constants in cm-1:     0.002095     0.001358     0.001016
Rotational constants in MHz :    62.807837    40.705007    30.469913

                             ****ORCA TERMINATED NORMALLY****
TOTAL RUN TIME: 0 days 0 hours 28 minutes 17 seconds 131 msec
