                         Program Version 5.0.3 -  RELEASE  -
|  1> !SC-NEVPT2 def2-TZVP def2-TZVP/C
|  2> !MOREAD RIJCOSX def2/J
|  3> %maxcore 4000
|  4> %moinp "casscf.gbw"
|  5> %pal nprocs 6 end
|  6>
|  7> %casscf
|  8>  mult 5,3
|  9>  bweight 1,1
| 10>  nroots 5,45
| 11>  nel 6
| 12>  norb 5
| 13>  ptsettings
| 14>   d4tpre 1e-14 # default = 1e-10
| 15>   d3tpre 1e-14
| 16>  end
| 17>  rel
| 18>    dosoc true
| 19>    gtensor true
| 20>  end
| 21> end
| 22>
| 23>
| 24> *xyzfile 0 5 pbe.xyz
| 25>
| 26>
| 27>                          ****END OF INPUT****

CARTESIAN COORDINATES (ANGSTROEM)
---------------------------------
  Au     8.757245    7.215933    9.705132
  Au     8.599395    5.250916    7.683042
  Au     6.203545    8.366468   10.065624
  Au     4.424372    7.069683    8.297387
  Au     5.310491    9.658294    7.709652
  Au     5.195190    7.622967    5.620011
  Au     5.877405    5.155306    6.795759
  Au     9.698205   10.472123    6.415092
  Au     7.160616   11.495522    6.794634
  Au     8.030861   10.882855    4.191048
  Au     5.383989   10.347029    4.998123
  Au     9.716988    7.757970    7.083410
  Au     6.855569    8.434049    3.541116
  Au     7.828078    6.502203    5.275027
  Au     9.536012    8.516414    4.410748
  Au     8.214947    9.763483    8.668807
  Fe     7.003416    7.405863    7.733700

 Total Charge           Charge          ....    0
 Multiplicity           Mult            ....    5
 Number of Electrons    NEL             ....  330
 Basis Dimension        Dim             ....  685

ORBITAL ENERGIES
----------------

  NO   OCC          E(Eh)            E(eV)
   0   2.0000    -261.407711     -7113.2654
   1   2.0000     -31.969867      -869.9443
   2   2.0000     -27.450546      -746.9673
   3   2.0000     -27.449531      -746.9397
   4   2.0000     -27.449515      -746.9393
   5   2.0000      -4.722773      -128.5132
   6   2.0000      -4.722459      -128.5046
   7   2.0000      -4.722261      -128.4993
   8   2.0000      -4.721946      -128.4907
   9   2.0000      -4.721785      -128.4863
  10   2.0000      -4.720725      -128.4575
  11   2.0000      -4.718499      -128.3969
  12   2.0000      -4.717265      -128.3633
  13   2.0000      -4.716758      -128.3495
  14   2.0000      -4.716666      -128.3470
  15   2.0000      -4.707087      -128.0864
  16   2.0000      -4.706803      -128.0786
  17   2.0000      -4.706318      -128.0654
  18   2.0000      -4.705983      -128.0563
  19   2.0000      -4.705484      -128.0427
  20   2.0000      -4.699711      -127.8856
  21   2.0000      -4.203514      -114.3834
  22   2.0000      -2.782865       -75.7256
  23   2.0000      -2.782754       -75.7226
  24   2.0000      -2.781980       -75.7015
  25   2.0000      -2.763070       -75.1870
  26   2.0000      -2.761951       -75.1565
  27   2.0000      -2.761815       -75.1528
  28   2.0000      -2.761567       -75.1461
  29   2.0000      -2.761498       -75.1442
  30   2.0000      -2.759688       -75.0949
  31   2.0000      -2.759620       -75.0931
  32   2.0000      -2.758476       -75.0620
  33   2.0000      -2.758029       -75.0498
  34   2.0000      -2.757937       -75.0473
  35   2.0000      -2.756810       -75.0166
  36   2.0000      -2.756332       -75.0036
  37   2.0000      -2.756113       -74.9977
  38   2.0000      -2.755943       -74.9930
  39   2.0000      -2.755494       -74.9808
  40   2.0000      -2.754494       -74.9536
  41   2.0000      -2.754431       -74.9519
  42   2.0000      -2.753836       -74.9357
  43   2.0000      -2.753708       -74.9322
  44   2.0000      -2.753357       -74.9226
  45   2.0000      -2.753025       -74.9136
  46   2.0000      -2.752654       -74.9035
  47   2.0000      -2.752543       -74.9005
  48   2.0000      -2.752377       -74.8960
  49   2.0000      -2.751818       -74.8808
  50   2.0000      -2.751309       -74.8669
  51   2.0000      -2.750903       -74.8559
  52   2.0000      -2.750066       -74.8331
  53   2.0000      -2.749290       -74.8120
  54   2.0000      -2.748452       -74.7892
  55   2.0000      -2.746013       -74.7228
  56   2.0000      -2.745679       -74.7137
  57   2.0000      -2.745419       -74.7067
  58   2.0000      -2.745270       -74.7026
  59   2.0000      -2.744601       -74.6844
  60   2.0000      -2.742905       -74.6382
  61   2.0000      -2.742638       -74.6310
  62   2.0000      -2.742094       -74.6162
  63   2.0000      -2.741623       -74.6034
  64   2.0000      -2.741001       -74.5864
  65   2.0000      -2.740920       -74.5842
  66   2.0000      -2.740588       -74.5752
  67   2.0000      -2.740070       -74.5611
  68   2.0000      -2.739189       -74.5371
  69   2.0000      -2.739000       -74.5320
  70   2.0000      -2.734665       -74.4140
  71   2.0000      -2.734582       -74.4117
  72   2.0000      -2.733643       -74.3862
  73   2.0000      -0.592725       -16.1289
  74   2.0000      -0.564522       -15.3614
  75   2.0000      -0.563720       -15.3396
  76   2.0000      -0.556560       -15.1448
  77   2.0000      -0.556221       -15.1355
  78   2.0000      -0.553147       -15.0519
  79   2.0000      -0.552875       -15.0445
  80   2.0000      -0.548905       -14.9365
  81   2.0000      -0.547963       -14.9108
  82   2.0000      -0.543482       -14.7889
  83   2.0000      -0.542593       -14.7647
  84   2.0000      -0.541148       -14.7254
  85   2.0000      -0.539188       -14.6720
  86   2.0000      -0.537806       -14.6344
  87   2.0000      -0.536441       -14.5973
  88   2.0000      -0.535425       -14.5697
  89   2.0000      -0.534850       -14.5540
  90   2.0000      -0.533330       -14.5126
  91   2.0000      -0.531293       -14.4572
  92   2.0000      -0.529870       -14.4185
  93   2.0000      -0.529114       -14.3979
  94   2.0000      -0.528210       -14.3733
  95   2.0000      -0.527175       -14.3452
  96   2.0000      -0.522759       -14.2250
  97   2.0000      -0.522406       -14.2154
  98   2.0000      -0.521932       -14.2025
  99   2.0000      -0.514420       -13.9981
 100   2.0000      -0.512263       -13.9394
 101   2.0000      -0.510428       -13.8895
 102   2.0000      -0.509774       -13.8717
 103   2.0000      -0.508309       -13.8318
 104   2.0000      -0.505753       -13.7622
 105   2.0000      -0.505035       -13.7427
 106   2.0000      -0.504541       -13.7292
 107   2.0000      -0.497100       -13.5268
 108   2.0000      -0.496908       -13.5216
 109   2.0000      -0.490457       -13.3460
 110   2.0000      -0.487664       -13.2700
 111   2.0000      -0.485547       -13.2124
 112   2.0000      -0.485049       -13.1989
 113   2.0000      -0.484441       -13.1823
 114   2.0000      -0.482835       -13.1386
 115   2.0000      -0.476529       -12.9670
 116   2.0000      -0.475210       -12.9311
 117   2.0000      -0.469306       -12.7705
 118   2.0000      -0.466204       -12.6861
 119   2.0000      -0.465215       -12.6591
 120   2.0000      -0.460642       -12.5347
 121   2.0000      -0.459589       -12.5061
 122   2.0000      -0.459019       -12.4905
 123   2.0000      -0.457546       -12.4505
 124   2.0000      -0.456202       -12.4139
 125   2.0000      -0.455802       -12.4030
 126   2.0000      -0.452752       -12.3200
 127   2.0000      -0.451109       -12.2753
 128   2.0000      -0.449470       -12.2307
 129   2.0000      -0.447590       -12.1796
 130   2.0000      -0.446980       -12.1630
 131   2.0000      -0.445068       -12.1109
 132   2.0000      -0.442735       -12.0474
 133   2.0000      -0.440266       -11.9802
 134   2.0000      -0.438745       -11.9389
 135   2.0000      -0.438311       -11.9270
 136   2.0000      -0.437571       -11.9069
 137   2.0000      -0.435470       -11.8497
 138   2.0000      -0.433411       -11.7937
 139   2.0000      -0.432517       -11.7694
 140   2.0000      -0.431269       -11.7354
 141   2.0000      -0.427137       -11.6230
 142   2.0000      -0.426890       -11.6163
 143   2.0000      -0.426394       -11.6028
 144   2.0000      -0.417067       -11.3490
 145   2.0000      -0.416419       -11.3313
 146   2.0000      -0.414112       -11.2686
 147   2.0000      -0.411867       -11.2075
 148   2.0000      -0.410439       -11.1686
 149   2.0000      -0.407319       -11.0837
 150   2.0000      -0.406429       -11.0595
 151   2.0000      -0.400195       -10.8899
 152   2.0000      -0.399140       -10.8611
 153   2.0000      -0.390211       -10.6182
 154   2.0000      -0.383541       -10.4367
 155   2.0000      -0.366505        -9.9731
 156   2.0000      -0.365601        -9.9485
 157   2.0000      -0.267106        -7.2683
 158   2.0000      -0.265751        -7.2314
 159   2.0000      -0.232907        -6.3377
 160   2.0000      -0.232511        -6.3270
 161   2.0000      -0.227015        -6.1774
 162   1.2000      -0.274677        -7.4743
 163   1.2000      -0.282796        -7.6953
 164   1.2000      -0.284978        -7.7546
 165   1.2000      -0.281710        -7.6657
 166   1.2000      -0.281248        -7.6531
 167   0.0000      -0.027060        -0.7363
 168   0.0000      -0.024952        -0.6790
 169   0.0000      -0.021552        -0.5865
 170   0.0000      -0.016005        -0.4355
 171   0.0000      -0.014537        -0.3956

MULLIKEN ATOMIC CHARGES AND SPIN DENSITIES
------------------------------------------
   0 Au:    0.407727    0.007204
   1 Au:    0.429039    0.006444
   2 Au:    0.402301    0.007159
   3 Au:    0.413457    0.006899
   4 Au:   -0.322010    0.006733
   5 Au:   -0.391355    0.007105
   6 Au:    0.439505    0.006303
   7 Au:    0.256977    0.002630
   8 Au:    0.191619    0.002738
   9 Au:   -0.027411    0.000421
  10 Au:    0.292560    0.002599
  11 Au:   -0.353485    0.006790
  12 Au:    0.308689    0.002626
  13 Au:   -0.458528    0.007811
  14 Au:    0.308643    0.002628
  15 Au:   -0.310687    0.006800
  16 Fe:   -1.587041    2.917111
Sum of atomic charges       :    0.0000000

LOEWDIN ATOMIC CHARGES AND SPIN DENSITIES
-----------------------------------------
   0 Au:    0.092020    0.009623
   1 Au:    0.098078    0.008766
   2 Au:    0.090728    0.009545
   3 Au:    0.093293    0.009284
   4 Au:   -0.088981    0.008638
   5 Au:   -0.097552    0.009013
   6 Au:    0.101228    0.008618
   7 Au:    0.017903    0.002931
   8 Au:   -0.002316    0.002958
   9 Au:   -0.016317    0.001408
  10 Au:    0.028566    0.002942
  11 Au:   -0.093035    0.008703
  12 Au:    0.026368    0.002986
  13 Au:   -0.105823    0.009720
  14 Au:    0.028743    0.002984
  15 Au:   -0.086344    0.008719
  16 Fe:   -0.086556    2.893163

  Mayer bond orders larger than 0.100000
B(  0-Au, 11-Au) :   0.2301 B(  0-Au, 15-Au) :   0.2280 B(  0-Au, 16-Fe) :   0.3803
B(  1-Au, 11-Au) :   0.2325 B(  1-Au, 13-Au) :   0.2481 B(  1-Au, 16-Fe) :   0.3574
B(  2-Au,  4-Au) :   0.2252 B(  2-Au, 15-Au) :   0.2245 B(  2-Au, 16-Fe) :   0.3883
B(  3-Au,  4-Au) :   0.2320 B(  3-Au,  5-Au) :   0.2358 B(  3-Au, 16-Fe) :   0.3702
B(  4-Au,  5-Au) :   0.1769 B(  4-Au,  8-Au) :   0.3128 B(  4-Au, 10-Au) :   0.2858
B(  4-Au, 15-Au) :   0.1416 B(  4-Au, 16-Fe) :   0.3927 B(  5-Au,  6-Au) :   0.2356
B(  5-Au, 10-Au) :   0.2938 B(  5-Au, 12-Au) :   0.2861 B(  5-Au, 13-Au) :   0.1875
B(  5-Au, 16-Fe) :   0.4048 B(  6-Au, 13-Au) :   0.2470 B(  6-Au, 16-Fe) :   0.3524
B(  7-Au,  8-Au) :   0.1722 B(  7-Au,  9-Au) :   0.2488 B(  7-Au, 11-Au) :   0.2978
B(  7-Au, 14-Au) :   0.1528 B(  7-Au, 15-Au) :   0.2960 B(  8-Au,  9-Au) :   0.2546
B(  8-Au, 10-Au) :   0.1665 B(  8-Au, 15-Au) :   0.3130 B(  9-Au, 10-Au) :   0.2428
B(  9-Au, 12-Au) :   0.2575 B(  9-Au, 14-Au) :   0.2466 B( 10-Au, 12-Au) :   0.1456
B( 11-Au, 13-Au) :   0.1851 B( 11-Au, 14-Au) :   0.2838 B( 11-Au, 15-Au) :   0.1628
B( 11-Au, 16-Fe) :   0.3941 B( 12-Au, 13-Au) :   0.2985 B( 12-Au, 14-Au) :   0.1407
B( 13-Au, 14-Au) :   0.3001 B( 13-Au, 16-Fe) :   0.4240 B( 15-Au, 16-Fe) :   0.3964

FINAL SINGLE POINT ENERGY     -3427.435422817493

DIPOLE MOMENT
-------------
                                X             Y             Z
Electronic contribution:     11.10832      37.47122     -38.73783
Nuclear contribution   :    -11.33441     -38.31542      39.43295
                        -----------------------------------------
Total Dipole Moment    :     -0.22609      -0.84420       0.69512
                        -----------------------------------------
Magnitude (a.u.)       :      1.11669
Magnitude (Debye)      :      2.83839

Rotational constants in cm-1:     0.000965     0.000752     0.000746
Rotational constants in MHz :    28.920943    22.556033    22.374083

                             ****ORCA TERMINATED NORMALLY****
TOTAL RUN TIME: 0 days 4 hours 31 minutes 45 seconds 953 msec
