                         Program Version 5.0.3 -  RELEASE  -
|  1> %pal nprocs 1 end
|  2>
|  3> !PBE def2-TZVP OPT UNO
|  4> !SLOWCONV
|  5>
|  6> *xyzfile 0 5 0.xyz                           ****END OF INPUT****
 Total Charge           Charge          ....    0
 Multiplicity           Mult            ....    5
 Number of Electrons    NEL             ....  292
FINAL SINGLE POINT ENERGY     -3165.077098882245
FINAL SINGLE POINT ENERGY     -3165.078441699126
FINAL SINGLE POINT ENERGY     -3165.079353665654
FINAL SINGLE POINT ENERGY     -3165.079550250000
FINAL SINGLE POINT ENERGY     -3165.079759436467
FINAL SINGLE POINT ENERGY     -3165.079913964775
FINAL SINGLE POINT ENERGY     -3165.080067098526
FINAL SINGLE POINT ENERGY     -3165.080200533633
FINAL SINGLE POINT ENERGY     -3165.080317495706
FINAL SINGLE POINT ENERGY     -3165.080376531874
FINAL SINGLE POINT ENERGY     -3165.080436524003
FINAL SINGLE POINT ENERGY     -3165.080457030727
FINAL SINGLE POINT ENERGY     -3165.080463962552
FINAL SINGLE POINT ENERGY     -3165.080466024496
                    ***********************HURRAY********************

CARTESIAN COORDINATES (ANGSTROEM)
---------------------------------
  Au     7.906042   10.145211    8.678672
  Au     4.890535    7.775164    6.130346
  Au    10.042471    7.184934    4.766870
  Au    11.257324    7.344692    7.381809
  Au     9.370920    9.210146    6.547045
  Au     7.335871    7.413834    4.870400
  Au     6.744672    9.937294    6.128250
  Au     9.052897    5.720642    6.915451
  Au     6.337011    5.367212    6.665146
  Au     6.846473    8.084630   10.347899
  Au     5.173981    9.443895    8.449295
  Au     7.522423    5.566566    9.204852
  Au     4.928526    6.641748    8.766414
  Au     9.408508    7.745616    9.335835
  Fe     7.245842    7.737485    7.615433

 Multiplicity           Mult            ....    5
 Number of Electrons    NEL             ....  292
 Basis Dimension        Dim             ....  605

ORBITAL ENERGIES
----------------
                 SPIN UP ORBITALS
  NO   OCC          E(Eh)            E(eV)
   0   1.0000    -254.775973     -6932.8067
   1   1.0000     -29.616898      -805.9168
   2   1.0000     -25.555686      -695.4056
   3   1.0000     -25.551176      -695.2828
   4   1.0000     -25.548454      -695.2088
   5   1.0000      -4.032641      -109.7337
   6   1.0000      -4.032624      -109.7333
   7   1.0000      -4.032303      -109.7245
   8   1.0000      -4.032226      -109.7225
   9   1.0000      -4.031815      -109.7113
  10   1.0000      -4.031711      -109.7084
  11   1.0000      -4.028706      -109.6267
  12   1.0000      -4.028651      -109.6252
  13   1.0000      -4.028186      -109.6125
  14   1.0000      -4.028184      -109.6125
  15   1.0000      -4.024354      -109.5082
  16   1.0000      -4.024252      -109.5055
  17   1.0000      -4.019804      -109.3844
  18   1.0000      -4.019580      -109.3783
  19   1.0000      -3.395811       -92.4047
  20   1.0000      -2.251026       -61.2535
  21   1.0000      -2.251015       -61.2532
  22   1.0000      -2.247881       -61.1680
  23   1.0000      -2.247826       -61.1664
  24   1.0000      -2.247357       -61.1537
  25   1.0000      -2.247056       -61.1455
  26   1.0000      -2.246479       -61.1298
  27   1.0000      -2.246120       -61.1200
  28   1.0000      -2.245214       -61.0954
  29   1.0000      -2.245102       -61.0923
  30   1.0000      -2.244799       -61.0841
  31   1.0000      -2.244515       -61.0763
  32   1.0000      -2.244035       -61.0633
  33   1.0000      -2.243895       -61.0595
  34   1.0000      -2.243544       -61.0499
  35   1.0000      -2.243313       -61.0436
  36   1.0000      -2.242718       -61.0275
  37   1.0000      -2.242680       -61.0264
  38   1.0000      -2.242111       -61.0109
  39   1.0000      -2.242046       -61.0092
  40   1.0000      -2.242013       -61.0083
  41   1.0000      -2.241870       -61.0044
  42   1.0000      -2.241411       -60.9919
  43   1.0000      -2.241294       -60.9887
  44   1.0000      -2.240744       -60.9737
  45   1.0000      -2.240575       -60.9691
  46   1.0000      -2.239560       -60.9415
  47   1.0000      -2.239532       -60.9408
  48   1.0000      -2.238448       -60.9113
  49   1.0000      -2.237882       -60.8959
  50   1.0000      -2.237557       -60.8870
  51   1.0000      -2.237521       -60.8860
  52   1.0000      -2.236987       -60.8715
  53   1.0000      -2.236076       -60.8467
  54   1.0000      -2.236018       -60.8452
  55   1.0000      -2.235227       -60.8236
  56   1.0000      -2.233839       -60.7858
  57   1.0000      -2.233613       -60.7797
  58   1.0000      -2.233423       -60.7745
  59   1.0000      -2.231622       -60.7255
  60   1.0000      -2.231140       -60.7124
  61   1.0000      -2.230883       -60.7054
  62   1.0000      -2.217051       -60.3290
  63   1.0000      -2.207653       -60.0733
  64   1.0000      -2.202502       -59.9331
  65   1.0000      -0.445288       -12.1169
  66   1.0000      -0.393784       -10.7154
  67   1.0000      -0.392753       -10.6873
  68   1.0000      -0.388609       -10.5746
  69   1.0000      -0.385937       -10.5019
  70   1.0000      -0.380379       -10.3506
  71   1.0000      -0.380125       -10.3437
  72   1.0000      -0.375885       -10.2283
  73   1.0000      -0.374826       -10.1995
  74   1.0000      -0.365757        -9.9527
  75   1.0000      -0.358338        -9.7509
  76   1.0000      -0.357362        -9.7243
  77   1.0000      -0.353317        -9.6142
  78   1.0000      -0.351161        -9.5556
  79   1.0000      -0.349549        -9.5117
  80   1.0000      -0.348602        -9.4860
  81   1.0000      -0.346266        -9.4224
  82   1.0000      -0.346141        -9.4190
  83   1.0000      -0.344698        -9.3797
  84   1.0000      -0.342297        -9.3144
  85   1.0000      -0.340462        -9.2644
  86   1.0000      -0.337596        -9.1865
  87   1.0000      -0.337442        -9.1823
  88   1.0000      -0.336769        -9.1639
  89   1.0000      -0.336657        -9.1609
  90   1.0000      -0.329905        -8.9772
  91   1.0000      -0.324422        -8.8280
  92   1.0000      -0.323927        -8.8145
  93   1.0000      -0.320166        -8.7122
  94   1.0000      -0.319548        -8.6953
  95   1.0000      -0.317137        -8.6297
  96   1.0000      -0.315734        -8.5915
  97   1.0000      -0.315641        -8.5890
  98   1.0000      -0.311406        -8.4738
  99   1.0000      -0.303045        -8.2463
 100   1.0000      -0.301011        -8.1909
 101   1.0000      -0.300153        -8.1676
 102   1.0000      -0.299520        -8.1503
 103   1.0000      -0.298689        -8.1277
 104   1.0000      -0.297794        -8.1034
 105   1.0000      -0.295972        -8.0538
 106   1.0000      -0.287379        -7.8200
 107   1.0000      -0.283473        -7.7137
 108   1.0000      -0.281576        -7.6621
 109   1.0000      -0.279716        -7.6114
 110   1.0000      -0.278649        -7.5824
 111   1.0000      -0.277125        -7.5410
 112   1.0000      -0.277057        -7.5391
 113   1.0000      -0.276331        -7.5194
 114   1.0000      -0.273268        -7.4360
 115   1.0000      -0.272288        -7.4093
 116   1.0000      -0.271828        -7.3968
 117   1.0000      -0.270039        -7.3481
 118   1.0000      -0.268380        -7.3030
 119   1.0000      -0.267745        -7.2857
 120   1.0000      -0.266041        -7.2393
 121   1.0000      -0.264183        -7.1888
 122   1.0000      -0.263742        -7.1768
 123   1.0000      -0.262944        -7.1551
 124   1.0000      -0.262287        -7.1372
 125   1.0000      -0.261488        -7.1155
 126   1.0000      -0.261371        -7.1123
 127   1.0000      -0.259514        -7.0617
 128   1.0000      -0.258823        -7.0429
 129   1.0000      -0.257799        -7.0151
 130   1.0000      -0.257327        -7.0022
 131   1.0000      -0.254979        -6.9383
 132   1.0000      -0.254389        -6.9223
 133   1.0000      -0.253541        -6.8992
 134   1.0000      -0.252182        -6.8622
 135   1.0000      -0.251826        -6.8525
 136   1.0000      -0.251588        -6.8461
 137   1.0000      -0.248807        -6.7704
 138   1.0000      -0.247681        -6.7397
 139   1.0000      -0.247239        -6.7277
 140   1.0000      -0.244364        -6.6495
 141   1.0000      -0.242272        -6.5925
 142   1.0000      -0.235378        -6.4050
 143   1.0000      -0.233008        -6.3405
 144   1.0000      -0.217067        -5.9067
 145   1.0000      -0.207605        -5.6492
 146   1.0000      -0.194442        -5.2910
 147   1.0000      -0.191411        -5.2085
 148   0.0000      -0.183459        -4.9922
 149   0.0000      -0.145428        -3.9573
 150   0.0000      -0.132130        -3.5954
 151   0.0000      -0.127045        -3.4571
 152   0.0000      -0.122681        -3.3383

                 SPIN DOWN ORBITALS
  NO   OCC          E(Eh)            E(eV)
   0   1.0000    -254.775248     -6932.7870
   1   1.0000     -29.555258      -804.2395
   2   1.0000     -25.506872      -694.0773
   3   1.0000     -25.505163      -694.0308
   4   1.0000     -25.503612      -693.9886
   5   1.0000      -4.032078      -109.7184
   6   1.0000      -4.032008      -109.7165
   7   1.0000      -4.031701      -109.7082
   8   1.0000      -4.031679      -109.7076
   9   1.0000      -4.031512      -109.7030
  10   1.0000      -4.031420      -109.7005
  11   1.0000      -4.028004      -109.6076
  12   1.0000      -4.027966      -109.6065
  13   1.0000      -4.027695      -109.5992
  14   1.0000      -4.027692      -109.5991
  15   1.0000      -4.023981      -109.4981
  16   1.0000      -4.023879      -109.4953
  17   1.0000      -4.019778      -109.3837
  18   1.0000      -4.019549      -109.3775
  19   1.0000      -3.257548       -88.6424
  20   1.0000      -2.250238       -61.2321
  21   1.0000      -2.250201       -61.2311
  22   1.0000      -2.247174       -61.1487
  23   1.0000      -2.247127       -61.1474
  24   1.0000      -2.246668       -61.1349
  25   1.0000      -2.246491       -61.1301
  26   1.0000      -2.245884       -61.1136
  27   1.0000      -2.245530       -61.1040
  28   1.0000      -2.244860       -61.0857
  29   1.0000      -2.244712       -61.0817
  30   1.0000      -2.244424       -61.0739
  31   1.0000      -2.244035       -61.0633
  32   1.0000      -2.243800       -61.0569
  33   1.0000      -2.243490       -61.0485
  34   1.0000      -2.242635       -61.0252
  35   1.0000      -2.242309       -61.0163
  36   1.0000      -2.242263       -61.0151
  37   1.0000      -2.241880       -61.0047
  38   1.0000      -2.241734       -61.0007
  39   1.0000      -2.241677       -60.9991
  40   1.0000      -2.241269       -60.9880
  41   1.0000      -2.241160       -60.9851
  42   1.0000      -2.240316       -60.9621
  43   1.0000      -2.240267       -60.9608
  44   1.0000      -2.239734       -60.9462
  45   1.0000      -2.239658       -60.9442
  46   1.0000      -2.239426       -60.9379
  47   1.0000      -2.239369       -60.9363
  48   1.0000      -2.237520       -60.8860
  49   1.0000      -2.237462       -60.8844
  50   1.0000      -2.237444       -60.8840
  51   1.0000      -2.237097       -60.8745
  52   1.0000      -2.236887       -60.8688
  53   1.0000      -2.235965       -60.8437
  54   1.0000      -2.235810       -60.8395
  55   1.0000      -2.234915       -60.8151
  56   1.0000      -2.233928       -60.7883
  57   1.0000      -2.233672       -60.7813
  58   1.0000      -2.233197       -60.7684
  59   1.0000      -2.231347       -60.7181
  60   1.0000      -2.231154       -60.7128
  61   1.0000      -2.230895       -60.7058
  62   1.0000      -2.075022       -56.4642
  63   1.0000      -2.074031       -56.4373
  64   1.0000      -2.072414       -56.3933
  65   1.0000      -0.440573       -11.9886
  66   1.0000      -0.392002       -10.6669
  67   1.0000      -0.391984       -10.6664
  68   1.0000      -0.387419       -10.5422
  69   1.0000      -0.376433       -10.2433
  70   1.0000      -0.371117       -10.0986
  71   1.0000      -0.370734       -10.0882
  72   1.0000      -0.364970        -9.9313
  73   1.0000      -0.363092        -9.8802
  74   1.0000      -0.361615        -9.8400
  75   1.0000      -0.355905        -9.6847
  76   1.0000      -0.355186        -9.6651
  77   1.0000      -0.351719        -9.5708
  78   1.0000      -0.349919        -9.5218
  79   1.0000      -0.349707        -9.5160
  80   1.0000      -0.346923        -9.4403
  81   1.0000      -0.345780        -9.4092
  82   1.0000      -0.345620        -9.4048
  83   1.0000      -0.342801        -9.3281
  84   1.0000      -0.341016        -9.2795
  85   1.0000      -0.339098        -9.2273
  86   1.0000      -0.336655        -9.1609
  87   1.0000      -0.336531        -9.1575
  88   1.0000      -0.336161        -9.1474
  89   1.0000      -0.335956        -9.1418
  90   1.0000      -0.327874        -8.9219
  91   1.0000      -0.320986        -8.7345
  92   1.0000      -0.320383        -8.7181
  93   1.0000      -0.317083        -8.6283
  94   1.0000      -0.315327        -8.5805
  95   1.0000      -0.312884        -8.5140
  96   1.0000      -0.310724        -8.4552
  97   1.0000      -0.308485        -8.3943
  98   1.0000      -0.304394        -8.2830
  99   1.0000      -0.300017        -8.1639
 100   1.0000      -0.299628        -8.1533
 101   1.0000      -0.290554        -7.9064
 102   1.0000      -0.289284        -7.8718
 103   1.0000      -0.288733        -7.8568
 104   1.0000      -0.286642        -7.7999
 105   1.0000      -0.283768        -7.7217
 106   1.0000      -0.282488        -7.6869
 107   1.0000      -0.281238        -7.6529
 108   1.0000      -0.279020        -7.5925
 109   1.0000      -0.278063        -7.5665
 110   1.0000      -0.276124        -7.5137
 111   1.0000      -0.275271        -7.4905
 112   1.0000      -0.274942        -7.4815
 113   1.0000      -0.274579        -7.4717
 114   1.0000      -0.272124        -7.4049
 115   1.0000      -0.270483        -7.3602
 116   1.0000      -0.269746        -7.3402
 117   1.0000      -0.268515        -7.3067
 118   1.0000      -0.266669        -7.2564
 119   1.0000      -0.266066        -7.2400
 120   1.0000      -0.263527        -7.1709
 121   1.0000      -0.262741        -7.1496
 122   1.0000      -0.261443        -7.1142
 123   1.0000      -0.260657        -7.0928
 124   1.0000      -0.260579        -7.0907
 125   1.0000      -0.260517        -7.0890
 126   1.0000      -0.255508        -6.9527
 127   1.0000      -0.255370        -6.9490
 128   1.0000      -0.253776        -6.9056
 129   1.0000      -0.253034        -6.8854
 130   1.0000      -0.251419        -6.8415
 131   1.0000      -0.251343        -6.8394
 132   1.0000      -0.247929        -6.7465
 133   1.0000      -0.246751        -6.7144
 134   1.0000      -0.245875        -6.6906
 135   1.0000      -0.243956        -6.6384
 136   1.0000      -0.242377        -6.5954
 137   1.0000      -0.235939        -6.4202
 138   1.0000      -0.233377        -6.3505
 139   1.0000      -0.221030        -6.0145
 140   1.0000      -0.212497        -5.7823
 141   1.0000      -0.208182        -5.6649
 142   1.0000      -0.204688        -5.5698
 143   1.0000      -0.201719        -5.4890
 144   0.0000      -0.173138        -4.7113
 145   0.0000      -0.170876        -4.6498
 146   0.0000      -0.166591        -4.5332
 147   0.0000      -0.161702        -4.4001
 148   0.0000      -0.159953        -4.3525

MULLIKEN ATOMIC CHARGES AND SPIN POPULATIONS
--------------------------------------------
   0 Au:    0.364838   -0.051989
   1 Au:    0.287228    0.082039
   2 Au:    0.379623    0.067685
   3 Au:    0.381498    0.067239
   4 Au:   -0.173494    0.177748
   5 Au:   -0.016090    0.119016
   6 Au:    0.376015   -0.064186
   7 Au:   -0.173372    0.177845
   8 Au:    0.366315   -0.052627
   9 Au:    0.287741    0.082785
  10 Au:    0.221029    0.126826
  11 Au:    0.374880   -0.063451
  12 Au:    0.220867    0.126814
  13 Au:   -0.016007    0.119364
  14 Fe:   -2.881071    3.084891
Sum of atomic charges         :   -0.0000000

LOEWDIN ATOMIC CHARGES AND SPIN POPULATIONS
-------------------------------------------
   0 Au:    0.082850    0.005651
   1 Au:    0.064422    0.041260
   2 Au:    0.068456    0.077333
   3 Au:    0.069781    0.076907
   4 Au:   -0.029099    0.098016
   5 Au:    0.019395    0.060414
   6 Au:    0.083675    0.002771
   7 Au:   -0.029108    0.098124
   8 Au:    0.083124    0.005484
   9 Au:    0.064397    0.041920
  10 Au:    0.044680    0.069424
  11 Au:    0.083490    0.003008
  12 Au:    0.044724    0.069389
  13 Au:    0.019373    0.061110
  14 Fe:   -0.670161    3.289189

  Mayer bond orders larger than 0.100000
B(  0-Au,  4-Au) :   0.2460 B(  0-Au,  6-Au) :   0.1963 B(  0-Au,  9-Au) :   0.1455
B(  0-Au, 10-Au) :   0.2015 B(  0-Au, 13-Au) :   0.1155 B(  0-Au, 14-Fe) :   0.4945
B(  1-Au,  5-Au) :   0.2768 B(  1-Au,  6-Au) :   0.1529 B(  1-Au,  8-Au) :   0.1443
B(  1-Au, 10-Au) :   0.1730 B(  1-Au, 12-Au) :   0.1727 B(  1-Au, 14-Fe) :   0.4576
B(  2-Au,  3-Au) :   0.1675 B(  2-Au,  4-Au) :   0.2842 B(  2-Au,  5-Au) :   0.3712
B(  2-Au,  7-Au) :   0.2813 B(  2-Au, 14-Fe) :   0.1014 B(  3-Au,  4-Au) :   0.2821
B(  3-Au,  7-Au) :   0.2851 B(  3-Au, 13-Au) :   0.3715 B(  3-Au, 14-Fe) :   0.1003
B(  4-Au,  5-Au) :   0.1190 B(  4-Au,  6-Au) :   0.2331 B(  4-Au,  7-Au) :   0.1225
B(  4-Au, 13-Au) :   0.1190 B(  4-Au, 14-Fe) :   0.4866 B(  5-Au,  6-Au) :   0.1261
B(  5-Au,  7-Au) :   0.1179 B(  5-Au,  8-Au) :   0.1171 B(  5-Au, 14-Fe) :   0.5560
B(  6-Au, 10-Au) :   0.1882 B(  6-Au, 14-Fe) :   0.4963 B(  7-Au,  8-Au) :   0.2462
B(  7-Au, 11-Au) :   0.2327 B(  7-Au, 13-Au) :   0.1202 B(  7-Au, 14-Fe) :   0.4868
B(  8-Au, 11-Au) :   0.1964 B(  8-Au, 12-Au) :   0.1990 B(  8-Au, 14-Fe) :   0.4954
B(  9-Au, 10-Au) :   0.1718 B(  9-Au, 11-Au) :   0.1531 B(  9-Au, 12-Au) :   0.1718
B(  9-Au, 13-Au) :   0.2771 B(  9-Au, 14-Fe) :   0.4585 B( 10-Au, 12-Au) :   0.1742
B( 10-Au, 14-Fe) :   0.4832 B( 11-Au, 12-Au) :   0.1911 B( 11-Au, 13-Au) :   0.1255
B( 11-Au, 14-Fe) :   0.4954 B( 12-Au, 14-Fe) :   0.4836 B( 13-Au, 14-Fe) :   0.5563

FINAL SINGLE POINT ENERGY     -3165.080466519851

DIPOLE MOMENT
-------------
                                X             Y             Z
Electronic contribution:     14.76620      -2.04152      -6.66697
Nuclear contribution   :    -14.66029       2.02678       6.62067
                        -----------------------------------------
Total Dipole Moment    :      0.10591      -0.01474      -0.04630
                        -----------------------------------------
Magnitude (a.u.)       :      0.11652
Magnitude (Debye)      :      0.29618

Rotational constants in cm-1:     0.001284     0.000989     0.000950
Rotational constants in MHz :    38.485350    29.651388    28.493723

                             ****ORCA TERMINATED NORMALLY****
TOTAL RUN TIME: 0 days 4 hours 28 minutes 7 seconds 85 msec
