                         Program Version 5.0.3 -  RELEASE  -
|  1> !CASSCF def2-TZVP def2-TZVP/C
|  2> !MOREAD RIJCOSX
|  3> %maxcore 6000
|  4> %moinp "pbe.qro"
|  5> %pal nprocs 2 end
|  6>
|  7> %casscf
|  8>  mult 5,3
|  9>  bweight 1,1
| 10>  nroots 5,45
| 11>  nel 6
| 12>  norb 5
| 13> end
| 14>
| 15>
| 16> *xyzfile 0 5 pbe.xyz
| 17>
| 18>
| 19>                          ****END OF INPUT****

CARTESIAN COORDINATES (ANGSTROEM)
---------------------------------
  Au    10.120799    7.446568    6.506265
  Au     6.778053   10.759364    6.631331
  Au     7.129701    7.645777   10.188649
  Au     7.645507   10.161784    9.205528
  Au     9.604390    8.209208    9.133390
  Au     7.705922    8.395290    5.469389
  Au     5.147029    9.273708    8.416062
  Au     6.441336    5.000269    9.687123
  Au     4.476156    6.937079    9.758649
  Au     3.716748    7.073618    7.121207
  Au     5.607667    6.287966    5.174204
  Au     9.453115   10.097226    7.019235
  Au     5.004680    8.964132    5.565240
  Au     8.301009    5.698873    5.437212
  Au     6.485148    4.334054    7.019616
  Au     8.718579    5.733999    8.278584
  Fe     6.355750    6.949060    7.658776

 Total Charge           Charge          ....    0
 Multiplicity           Mult            ....    5
 Number of Electrons    NEL             ....  330
 Basis Dimension        Dim             ....  685

ORBITAL ENERGIES
----------------

  NO   OCC          E(Eh)            E(eV)
   0   2.0000    -261.414626     -7113.4536
   1   2.0000     -31.974576      -870.0724
   2   2.0000     -27.455344      -747.0979
   3   2.0000     -27.454578      -747.0771
   4   2.0000     -27.454421      -747.0728
   5   2.0000      -4.723720      -128.5389
   6   2.0000      -4.721853      -128.4882
   7   2.0000      -4.721810      -128.4870
   8   2.0000      -4.721139      -128.4687
   9   2.0000      -4.720218      -128.4436
  10   2.0000      -4.720178      -128.4426
  11   2.0000      -4.719915      -128.4354
  12   2.0000      -4.719727      -128.4303
  13   2.0000      -4.719448      -128.4227
  14   2.0000      -4.714727      -128.2942
  15   2.0000      -4.714697      -128.2934
  16   2.0000      -4.711908      -128.2175
  17   2.0000      -4.711881      -128.2168
  18   2.0000      -4.707075      -128.0860
  19   2.0000      -4.706844      -128.0797
  20   2.0000      -4.700341      -127.9028
  21   2.0000      -4.207760      -114.4990
  22   2.0000      -2.787006       -75.8383
  23   2.0000      -2.786911       -75.8357
  24   2.0000      -2.786384       -75.8214
  25   2.0000      -2.761884       -75.1547
  26   2.0000      -2.761689       -75.1494
  27   2.0000      -2.761445       -75.1428
  28   2.0000      -2.761253       -75.1375
  29   2.0000      -2.760995       -75.1305
  30   2.0000      -2.759337       -75.0854
  31   2.0000      -2.759013       -75.0766
  32   2.0000      -2.758534       -75.0635
  33   2.0000      -2.758275       -75.0565
  34   2.0000      -2.757776       -75.0429
  35   2.0000      -2.757730       -75.0417
  36   2.0000      -2.757515       -75.0358
  37   2.0000      -2.757205       -75.0274
  38   2.0000      -2.756772       -75.0156
  39   2.0000      -2.756491       -75.0079
  40   2.0000      -2.756403       -75.0055
  41   2.0000      -2.755945       -74.9931
  42   2.0000      -2.755579       -74.9831
  43   2.0000      -2.755281       -74.9750
  44   2.0000      -2.754075       -74.9422
  45   2.0000      -2.753963       -74.9391
  46   2.0000      -2.753608       -74.9295
  47   2.0000      -2.753330       -74.9219
  48   2.0000      -2.753108       -74.9159
  49   2.0000      -2.752180       -74.8906
  50   2.0000      -2.751963       -74.8847
  51   2.0000      -2.751480       -74.8716
  52   2.0000      -2.751435       -74.8704
  53   2.0000      -2.751018       -74.8590
  54   2.0000      -2.749970       -74.8305
  55   2.0000      -2.749575       -74.8197
  56   2.0000      -2.748751       -74.7973
  57   2.0000      -2.748581       -74.7927
  58   2.0000      -2.747975       -74.7762
  59   2.0000      -2.747932       -74.7750
  60   2.0000      -2.746982       -74.7492
  61   2.0000      -2.746887       -74.7466
  62   2.0000      -2.746384       -74.7329
  63   2.0000      -2.746217       -74.7284
  64   2.0000      -2.745707       -74.7145
  65   2.0000      -2.742715       -74.6331
  66   2.0000      -2.742524       -74.6279
  67   2.0000      -2.741766       -74.6073
  68   2.0000      -2.741271       -74.5938
  69   2.0000      -2.740178       -74.5640
  70   2.0000      -2.736047       -74.4516
  71   2.0000      -2.735144       -74.4271
  72   2.0000      -2.734542       -74.4107
  73   2.0000      -0.586959       -15.9720
  74   2.0000      -0.562996       -15.3199
  75   2.0000      -0.559805       -15.2331
  76   2.0000      -0.559437       -15.2231
  77   2.0000      -0.556019       -15.1300
  78   2.0000      -0.554687       -15.0938
  79   2.0000      -0.554569       -15.0906
  80   2.0000      -0.552266       -15.0279
  81   2.0000      -0.551517       -15.0075
  82   2.0000      -0.548619       -14.9287
  83   2.0000      -0.548051       -14.9132
  84   2.0000      -0.546429       -14.8691
  85   2.0000      -0.545989       -14.8571
  86   2.0000      -0.542880       -14.7725
  87   2.0000      -0.542492       -14.7620
  88   2.0000      -0.541533       -14.7359
  89   2.0000      -0.538340       -14.6490
  90   2.0000      -0.535759       -14.5787
  91   2.0000      -0.534922       -14.5560
  92   2.0000      -0.533908       -14.5284
  93   2.0000      -0.533586       -14.5196
  94   2.0000      -0.531426       -14.4608
  95   2.0000      -0.529902       -14.4194
  96   2.0000      -0.529193       -14.4001
  97   2.0000      -0.526590       -14.3292
  98   2.0000      -0.526044       -14.3144
  99   2.0000      -0.521977       -14.2037
 100   2.0000      -0.518741       -14.1157
 101   2.0000      -0.517377       -14.0785
 102   2.0000      -0.515733       -14.0338
 103   2.0000      -0.510834       -13.9005
 104   2.0000      -0.507034       -13.7971
 105   2.0000      -0.506502       -13.7826
 106   2.0000      -0.500098       -13.6084
 107   2.0000      -0.498540       -13.5660
 108   2.0000      -0.493459       -13.4277
 109   2.0000      -0.491845       -13.3838
 110   2.0000      -0.487346       -13.2614
 111   2.0000      -0.483034       -13.1440
 112   2.0000      -0.480777       -13.0826
 113   2.0000      -0.479445       -13.0464
 114   2.0000      -0.479268       -13.0416
 115   2.0000      -0.478505       -13.0208
 116   2.0000      -0.471872       -12.8403
 117   2.0000      -0.470367       -12.7993
 118   2.0000      -0.468450       -12.7472
 119   2.0000      -0.464831       -12.6487
 120   2.0000      -0.464640       -12.6435
 121   2.0000      -0.463937       -12.6244
 122   2.0000      -0.461492       -12.5578
 123   2.0000      -0.459709       -12.5093
 124   2.0000      -0.455277       -12.3887
 125   2.0000      -0.454282       -12.3616
 126   2.0000      -0.453714       -12.3462
 127   2.0000      -0.451754       -12.2928
 128   2.0000      -0.450308       -12.2535
 129   2.0000      -0.448665       -12.2088
 130   2.0000      -0.448249       -12.1975
 131   2.0000      -0.446087       -12.1386
 132   2.0000      -0.443277       -12.0622
 133   2.0000      -0.442939       -12.0530
 134   2.0000      -0.440469       -11.9858
 135   2.0000      -0.440033       -11.9739
 136   2.0000      -0.439675       -11.9642
 137   2.0000      -0.433551       -11.7975
 138   2.0000      -0.433433       -11.7943
 139   2.0000      -0.430519       -11.7150
 140   2.0000      -0.430421       -11.7123
 141   2.0000      -0.426707       -11.6113
 142   2.0000      -0.425189       -11.5700
 143   2.0000      -0.421953       -11.4819
 144   2.0000      -0.419643       -11.4191
 145   2.0000      -0.418584       -11.3902
 146   2.0000      -0.416803       -11.3418
 147   2.0000      -0.416558       -11.3351
 148   2.0000      -0.412491       -11.2245
 149   2.0000      -0.410088       -11.1591
 150   2.0000      -0.403593       -10.9823
 151   2.0000      -0.402312       -10.9475
 152   2.0000      -0.396689       -10.7944
 153   2.0000      -0.389671       -10.6035
 154   2.0000      -0.378856       -10.3092
 155   2.0000      -0.374378       -10.1874
 156   2.0000      -0.369967       -10.0673
 157   2.0000      -0.271065        -7.3761
 158   2.0000      -0.252516        -6.8713
 159   2.0000      -0.242985        -6.6120
 160   2.0000      -0.236850        -6.4450
 161   2.0000      -0.231815        -6.3080
 162   1.2000      -0.280361        -7.6290
 163   1.2000      -0.284184        -7.7330
 164   1.2000      -0.284562        -7.7433
 165   1.2000      -0.290138        -7.8950
 166   1.2000      -0.289753        -7.8846
 167   0.0000      -0.033978        -0.9246
 168   0.0000      -0.019385        -0.5275
 169   0.0000      -0.016405        -0.4464
 170   0.0000      -0.011488        -0.3126
 171   0.0000      -0.003235        -0.0880

MULLIKEN ATOMIC CHARGES AND SPIN DENSITIES
------------------------------------------
   0 Au:    0.225968    0.003049
   1 Au:    0.226902    0.003048
   2 Au:   -0.226300    0.007986
   3 Au:    0.198179    0.002947
   4 Au:    0.196011    0.002949
   5 Au:   -0.631980    0.006273
   6 Au:   -0.219709    0.007826
   7 Au:    0.349035    0.004895
   8 Au:    0.349383    0.004845
   9 Au:    0.326625    0.006388
  10 Au:    0.257045    0.007140
  11 Au:    0.113944    0.001340
  12 Au:    0.167081    0.003669
  13 Au:    0.167997    0.003668
  14 Au:    0.327284    0.006399
  15 Au:   -0.218150    0.007808
  16 Fe:   -1.609314    2.919770
Sum of atomic charges       :    0.0000000

LOEWDIN ATOMIC CHARGES AND SPIN DENSITIES
-----------------------------------------
   0 Au:    0.033528    0.003415
   1 Au:    0.033146    0.003416
   2 Au:   -0.059493    0.009352
   3 Au:   -0.011830    0.003543
   4 Au:   -0.012543    0.003551
   5 Au:   -0.104769    0.007412
   6 Au:   -0.060720    0.009917
   7 Au:    0.070341    0.006529
   8 Au:    0.070902    0.006474
   9 Au:    0.072820    0.008377
  10 Au:    0.007097    0.009108
  11 Au:    0.012895    0.002406
  12 Au:    0.005114    0.004889
  13 Au:    0.005340    0.004885
  14 Au:    0.073228    0.008392
  15 Au:   -0.060793    0.009901
  16 Fe:   -0.074265    2.898432

  Mayer bond orders larger than 0.100000
B(  0-Au,  4-Au) :   0.1664 B(  0-Au,  5-Au) :   0.3138 B(  0-Au, 11-Au) :   0.2445
B(  0-Au, 13-Au) :   0.2640 B(  0-Au, 15-Au) :   0.2611 B(  1-Au,  3-Au) :   0.1668
B(  1-Au,  5-Au) :   0.3152 B(  1-Au,  6-Au) :   0.2597 B(  1-Au, 11-Au) :   0.2442
B(  1-Au, 12-Au) :   0.2645 B(  2-Au,  3-Au) :   0.2583 B(  2-Au,  4-Au) :   0.2581
B(  2-Au,  6-Au) :   0.1255 B(  2-Au,  7-Au) :   0.2605 B(  2-Au,  8-Au) :   0.2608
B(  2-Au, 15-Au) :   0.1237 B(  2-Au, 16-Fe) :   0.4535 B(  3-Au,  4-Au) :   0.2313
B(  3-Au,  6-Au) :   0.2840 B(  3-Au, 11-Au) :   0.2047 B(  4-Au, 11-Au) :   0.2039
B(  4-Au, 15-Au) :   0.2845 B(  5-Au, 10-Au) :   0.2214 B(  5-Au, 11-Au) :   0.2937
B(  5-Au, 12-Au) :   0.2914 B(  5-Au, 13-Au) :   0.2919 B(  5-Au, 16-Fe) :   0.3054
B(  6-Au,  8-Au) :   0.1994 B(  6-Au,  9-Au) :   0.1793 B(  6-Au, 12-Au) :   0.1602
B(  6-Au, 16-Fe) :   0.4230 B(  7-Au,  8-Au) :   0.1648 B(  7-Au, 14-Au) :   0.1506
B(  7-Au, 15-Au) :   0.1982 B(  7-Au, 16-Fe) :   0.3226 B(  8-Au,  9-Au) :   0.1515
B(  8-Au, 16-Fe) :   0.3206 B(  9-Au, 10-Au) :   0.1086 B(  9-Au, 12-Au) :   0.1935
B(  9-Au, 16-Fe) :   0.3736 B( 10-Au, 12-Au) :   0.2127 B( 10-Au, 13-Au) :   0.2131
B( 10-Au, 14-Au) :   0.1076 B( 10-Au, 16-Fe) :   0.4216 B( 12-Au, 16-Fe) :   0.2612
B( 13-Au, 14-Au) :   0.1932 B( 13-Au, 15-Au) :   0.1599 B( 13-Au, 16-Fe) :   0.2599
B( 14-Au, 15-Au) :   0.1806 B( 14-Au, 16-Fe) :   0.3737 B( 15-Au, 16-Fe) :   0.4233

FINAL SINGLE POINT ENERGY     -3419.399776276729

DIPOLE MOMENT
-------------
                                X             Y             Z
Electronic contribution:     24.95321      25.40340      -4.61519
Nuclear contribution   :    -25.46122     -25.91602       4.61373
                        -----------------------------------------
Total Dipole Moment    :     -0.50802      -0.51261      -0.00146
                        -----------------------------------------
Magnitude (a.u.)       :      0.72170
Magnitude (Debye)      :      1.83442

Rotational constants in cm-1:     0.000915     0.000814     0.000771
Rotational constants in MHz :    27.417372    24.395996    23.103738

                             ****ORCA TERMINATED NORMALLY****
TOTAL RUN TIME: 0 days 0 hours 36 minutes 9 seconds 316 msec
