                         Program Version 5.0.3 -  RELEASE  -
|  1> !RI-B2PLYP def2-TZVP def2-TZVP/C
|  2> !RIJCOSX VERYSLOWCONV
|  3>
|  4> %scf
|  5>   AutoTRAHIter 200
|  6>   maxiter 400
|  7> end
|  8>
|  9>
| 10> %pal nprocs 6 end
| 11>
| 12> *xyzfile 0 5 pbe.xyz
| 13>
| 14> $new_job
| 15>
| 16> !RI-B2PLYP def2-TZVP def2-TZVP/C
| 17> !RIJCOSX VERYSLOWCONV
| 18>
| 19> %scf
| 20>   AutoTRAHIter 200
| 21>   maxiter 400
| 22> end
| 23>
| 24>
| 25> %pal nprocs 6 end
| 26>
| 27> *xyzfile 0 3 pbe.xyz
| 28>
| 29>
| 30>
| 31>
| 32>
| 33>                          ****END OF INPUT****
 Total Charge           Charge          ....    0
 Multiplicity           Mult            ....    5
 Number of Electrons    NEL             ....  290
MP2 TOTAL ENERGY:    -2942.504531419 Eh
FINAL SINGLE POINT ENERGY     -2942.504531418998

CARTESIAN COORDINATES (ANGSTROEM)
---------------------------------
  Au     6.072828   10.225577    6.346267
  Au     5.319850    7.580037    7.271152
  Au     7.491862    5.970346    7.598326
  Au     7.421517    8.985930    8.450828
  Au     9.256769    7.200801    9.500032
  Au    10.036991    9.880585    8.579552
  Au     8.774391   10.454423    6.064896
  Au    11.452148    9.587235    6.120835
  Au    11.763912    7.647248    8.221301
  Au     8.911294    5.790258    5.107977
  Au    11.548039    6.783227    5.515033
  Au     9.672319    8.472304    4.189061
  Au     7.153253    7.925323    5.195241
  Au    10.224452    5.305806    7.595382
  Cr     9.379189    7.860585    6.844275

 Multiplicity           Mult            ....    3
 Number of Electrons    NEL             ....  290
 Basis Dimension        Dim             ....  605

ORBITAL ENERGIES
----------------
                 SPIN UP ORBITALS
  NO   OCC          E(Eh)            E(eV)
   0   1.0000    -217.747957     -5925.2231
   1   1.0000     -25.433252      -692.0740
   2   1.0000     -21.573262      -587.0383
   3   1.0000     -21.571335      -586.9859
   4   1.0000     -21.567976      -586.8945
   5   1.0000      -4.402823      -119.8069
   6   1.0000      -4.402647      -119.8021
   7   1.0000      -4.397108      -119.6514
   8   1.0000      -4.397077      -119.6505
   9   1.0000      -4.397037      -119.6495
  10   1.0000      -4.397006      -119.6486
  11   1.0000      -4.395240      -119.6006
  12   1.0000      -4.395151      -119.5981
  13   1.0000      -4.394515      -119.5808
  14   1.0000      -4.394321      -119.5756
  15   1.0000      -4.393828      -119.5621
  16   1.0000      -4.393797      -119.5613
  17   1.0000      -4.387849      -119.3994
  18   1.0000      -4.387712      -119.3957
  19   1.0000      -3.222813       -87.6972
  20   1.0000      -2.524641       -68.6990
  21   1.0000      -2.524446       -68.6937
  22   1.0000      -2.520190       -68.5779
  23   1.0000      -2.519512       -68.5594
  24   1.0000      -2.519374       -68.5556
  25   1.0000      -2.519153       -68.5496
  26   1.0000      -2.518217       -68.5242
  27   1.0000      -2.518041       -68.5194
  28   1.0000      -2.517661       -68.5090
  29   1.0000      -2.517042       -68.4922
  30   1.0000      -2.516558       -68.4790
  31   1.0000      -2.515885       -68.4607
  32   1.0000      -2.515661       -68.4546
  33   1.0000      -2.515096       -68.4392
  34   1.0000      -2.514685       -68.4280
  35   1.0000      -2.514569       -68.4249
  36   1.0000      -2.514414       -68.4207
  37   1.0000      -2.514265       -68.4166
  38   1.0000      -2.513446       -68.3943
  39   1.0000      -2.512867       -68.3786
  40   1.0000      -2.512857       -68.3783
  41   1.0000      -2.512815       -68.3772
  42   1.0000      -2.512733       -68.3750
  43   1.0000      -2.512371       -68.3651
  44   1.0000      -2.512019       -68.3555
  45   1.0000      -2.511824       -68.3502
  46   1.0000      -2.510820       -68.3229
  47   1.0000      -2.510734       -68.3205
  48   1.0000      -2.510588       -68.3166
  49   1.0000      -2.509764       -68.2941
  50   1.0000      -2.509248       -68.2801
  51   1.0000      -2.508996       -68.2733
  52   1.0000      -2.508797       -68.2678
  53   1.0000      -2.508467       -68.2589
  54   1.0000      -2.508123       -68.2495
  55   1.0000      -2.507996       -68.2460
  56   1.0000      -2.505879       -68.1884
  57   1.0000      -2.505130       -68.1681
  58   1.0000      -2.504794       -68.1589
  59   1.0000      -2.503000       -68.1101
  60   1.0000      -2.502982       -68.1096
  61   1.0000      -2.502862       -68.1063
  62   1.0000      -2.114391       -57.5355
  63   1.0000      -2.107731       -57.3543
  64   1.0000      -2.103962       -57.2517
  65   1.0000      -0.506650       -13.7866
  66   1.0000      -0.477856       -13.0031
  67   1.0000      -0.475743       -12.9456
  68   1.0000      -0.475587       -12.9414
  69   1.0000      -0.474154       -12.9024
  70   1.0000      -0.472497       -12.8573
  71   1.0000      -0.464071       -12.6280
  72   1.0000      -0.462059       -12.5733
  73   1.0000      -0.461407       -12.5555
  74   1.0000      -0.455139       -12.3850
  75   1.0000      -0.453487       -12.3400
  76   1.0000      -0.451941       -12.2979
  77   1.0000      -0.450767       -12.2660
  78   1.0000      -0.449710       -12.2372
  79   1.0000      -0.448240       -12.1972
  80   1.0000      -0.447529       -12.1779
  81   1.0000      -0.445478       -12.1221
  82   1.0000      -0.444965       -12.1081
  83   1.0000      -0.442227       -12.0336
  84   1.0000      -0.439416       -11.9571
  85   1.0000      -0.437311       -11.8998
  86   1.0000      -0.437219       -11.8973
  87   1.0000      -0.437154       -11.8956
  88   1.0000      -0.432229       -11.7615
  89   1.0000      -0.430907       -11.7256
  90   1.0000      -0.419403       -11.4125
  91   1.0000      -0.416488       -11.3332
  92   1.0000      -0.415963       -11.3189
  93   1.0000      -0.415417       -11.3041
  94   1.0000      -0.410834       -11.1794
  95   1.0000      -0.410130       -11.1602
  96   1.0000      -0.408875       -11.1260
  97   1.0000      -0.407336       -11.0842
  98   1.0000      -0.400864       -10.9081
  99   1.0000      -0.397952       -10.8288
 100   1.0000      -0.394968       -10.7476
 101   1.0000      -0.392543       -10.6816
 102   1.0000      -0.391273       -10.6471
 103   1.0000      -0.388547       -10.5729
 104   1.0000      -0.387295       -10.5388
 105   1.0000      -0.380397       -10.3511
 106   1.0000      -0.376023       -10.2321
 107   1.0000      -0.373864       -10.1734
 108   1.0000      -0.373818       -10.1721
 109   1.0000      -0.371397       -10.1062
 110   1.0000      -0.371115       -10.0986
 111   1.0000      -0.368874       -10.0376
 112   1.0000      -0.368250       -10.0206
 113   1.0000      -0.367134        -9.9902
 114   1.0000      -0.365101        -9.9349
 115   1.0000      -0.362873        -9.8743
 116   1.0000      -0.362287        -9.8583
 117   1.0000      -0.361980        -9.8500
 118   1.0000      -0.360375        -9.8063
 119   1.0000      -0.358818        -9.7639
 120   1.0000      -0.357799        -9.7362
 121   1.0000      -0.354101        -9.6356
 122   1.0000      -0.352110        -9.5814
 123   1.0000      -0.351178        -9.5560
 124   1.0000      -0.350303        -9.5322
 125   1.0000      -0.350035        -9.5249
 126   1.0000      -0.347190        -9.4475
 127   1.0000      -0.343833        -9.3562
 128   1.0000      -0.342783        -9.3276
 129   1.0000      -0.341525        -9.2934
 130   1.0000      -0.341415        -9.2904
 131   1.0000      -0.337659        -9.1882
 132   1.0000      -0.335470        -9.1286
 133   1.0000      -0.330919        -9.0048
 134   1.0000      -0.330649        -8.9974
 135   1.0000      -0.329053        -8.9540
 136   1.0000      -0.325701        -8.8628
 137   1.0000      -0.319307        -8.6888
 138   1.0000      -0.317775        -8.6471
 139   1.0000      -0.314551        -8.5594
 140   1.0000      -0.311819        -8.4850
 141   1.0000      -0.302795        -8.2395
 142   1.0000      -0.294934        -8.0256
 143   1.0000      -0.234969        -6.3938
 144   1.0000      -0.231906        -6.3105
 145   1.0000      -0.219164        -5.9637
 146   0.0000      -0.116488        -3.1698
 147   0.0000      -0.112821        -3.0700
 148   0.0000      -0.079942        -2.1753
 149   0.0000      -0.075293        -2.0488
 150   0.0000      -0.065950        -1.7946

                 SPIN DOWN ORBITALS
  NO   OCC          E(Eh)            E(eV)
   0   1.0000    -217.746685     -5925.1885
   1   1.0000     -25.363106      -690.1652
   2   1.0000     -21.514601      -585.4420
   3   1.0000     -21.508385      -585.2729
   4   1.0000     -21.495302      -584.9169
   5   1.0000      -4.402869      -119.8081
   6   1.0000      -4.402722      -119.8042
   7   1.0000      -4.397222      -119.6545
   8   1.0000      -4.397188      -119.6536
   9   1.0000      -4.397151      -119.6526
  10   1.0000      -4.397116      -119.6516
  11   1.0000      -4.395324      -119.6029
  12   1.0000      -4.395240      -119.6006
  13   1.0000      -4.395059      -119.5956
  14   1.0000      -4.394891      -119.5911
  15   1.0000      -4.393783      -119.5609
  16   1.0000      -4.393752      -119.5601
  17   1.0000      -4.388488      -119.4168
  18   1.0000      -4.388350      -119.4131
  19   1.0000      -3.006861       -81.8209
  20   1.0000      -2.523707       -68.6735
  21   1.0000      -2.523556       -68.6695
  22   1.0000      -2.519310       -68.5539
  23   1.0000      -2.519113       -68.5485
  24   1.0000      -2.518930       -68.5436
  25   1.0000      -2.518341       -68.5275
  26   1.0000      -2.517015       -68.4914
  27   1.0000      -2.516851       -68.4870
  28   1.0000      -2.516662       -68.4819
  29   1.0000      -2.516081       -68.4660
  30   1.0000      -2.515851       -68.4598
  31   1.0000      -2.515097       -68.4393
  32   1.0000      -2.515063       -68.4383
  33   1.0000      -2.514728       -68.4292
  34   1.0000      -2.514566       -68.4248
  35   1.0000      -2.514362       -68.4193
  36   1.0000      -2.514267       -68.4167
  37   1.0000      -2.514207       -68.4150
  38   1.0000      -2.512788       -68.3764
  39   1.0000      -2.512724       -68.3747
  40   1.0000      -2.512227       -68.3612
  41   1.0000      -2.512135       -68.3587
  42   1.0000      -2.512112       -68.3581
  43   1.0000      -2.512056       -68.3565
  44   1.0000      -2.511606       -68.3443
  45   1.0000      -2.511127       -68.3312
  46   1.0000      -2.510872       -68.3243
  47   1.0000      -2.510755       -68.3211
  48   1.0000      -2.510494       -68.3140
  49   1.0000      -2.510227       -68.3068
  50   1.0000      -2.509449       -68.2856
  51   1.0000      -2.509167       -68.2779
  52   1.0000      -2.508883       -68.2702
  53   1.0000      -2.508661       -68.2641
  54   1.0000      -2.508286       -68.2539
  55   1.0000      -2.507945       -68.2447
  56   1.0000      -2.506878       -68.2156
  57   1.0000      -2.506152       -68.1959
  58   1.0000      -2.505104       -68.1673
  59   1.0000      -2.504647       -68.1549
  60   1.0000      -2.504518       -68.1514
  61   1.0000      -2.503289       -68.1180
  62   1.0000      -1.879423       -51.1417
  63   1.0000      -1.865507       -50.7630
  64   1.0000      -1.836142       -49.9640
  65   1.0000      -0.502853       -13.6833
  66   1.0000      -0.474478       -12.9112
  67   1.0000      -0.469542       -12.7769
  68   1.0000      -0.466320       -12.6892
  69   1.0000      -0.463044       -12.6001
  70   1.0000      -0.458704       -12.4820
  71   1.0000      -0.458669       -12.4810
  72   1.0000      -0.458590       -12.4789
  73   1.0000      -0.458386       -12.4733
  74   1.0000      -0.455655       -12.3990
  75   1.0000      -0.454192       -12.3592
  76   1.0000      -0.452202       -12.3051
  77   1.0000      -0.451925       -12.2975
  78   1.0000      -0.451228       -12.2785
  79   1.0000      -0.449573       -12.2335
  80   1.0000      -0.449135       -12.2216
  81   1.0000      -0.448427       -12.2023
  82   1.0000      -0.445243       -12.1157
  83   1.0000      -0.442207       -12.0331
  84   1.0000      -0.441515       -12.0142
  85   1.0000      -0.438997       -11.9457
  86   1.0000      -0.438700       -11.9376
  87   1.0000      -0.438334       -11.9277
  88   1.0000      -0.432977       -11.7819
  89   1.0000      -0.432268       -11.7626
  90   1.0000      -0.419268       -11.4089
  91   1.0000      -0.416550       -11.3349
  92   1.0000      -0.416249       -11.3267
  93   1.0000      -0.416137       -11.3237
  94   1.0000      -0.409371       -11.1395
  95   1.0000      -0.408753       -11.1227
  96   1.0000      -0.406712       -11.0672
  97   1.0000      -0.406303       -11.0561
  98   1.0000      -0.399309       -10.8658
  99   1.0000      -0.398173       -10.8349
 100   1.0000      -0.392822       -10.6892
 101   1.0000      -0.382702       -10.4139
 102   1.0000      -0.381532       -10.3820
 103   1.0000      -0.378498       -10.2995
 104   1.0000      -0.377660       -10.2766
 105   1.0000      -0.377258       -10.2657
 106   1.0000      -0.375470       -10.2171
 107   1.0000      -0.375309       -10.2127
 108   1.0000      -0.374502       -10.1907
 109   1.0000      -0.373606       -10.1663
 110   1.0000      -0.370214       -10.0740
 111   1.0000      -0.369116       -10.0441
 112   1.0000      -0.368340       -10.0230
 113   1.0000      -0.368224       -10.0199
 114   1.0000      -0.365122        -9.9355
 115   1.0000      -0.363407        -9.8888
 116   1.0000      -0.362351        -9.8601
 117   1.0000      -0.362171        -9.8552
 118   1.0000      -0.361655        -9.8411
 119   1.0000      -0.359201        -9.7744
 120   1.0000      -0.358634        -9.7589
 121   1.0000      -0.356224        -9.6933
 122   1.0000      -0.355271        -9.6674
 123   1.0000      -0.351933        -9.5766
 124   1.0000      -0.351309        -9.5596
 125   1.0000      -0.349997        -9.5239
 126   1.0000      -0.346743        -9.4353
 127   1.0000      -0.345718        -9.4075
 128   1.0000      -0.344301        -9.3689
 129   1.0000      -0.342930        -9.3316
 130   1.0000      -0.340563        -9.2672
 131   1.0000      -0.340143        -9.2558
 132   1.0000      -0.334364        -9.0985
 133   1.0000      -0.331460        -9.0195
 134   1.0000      -0.326238        -8.8774
 135   1.0000      -0.321845        -8.7579
 136   1.0000      -0.315870        -8.5953
 137   1.0000      -0.314798        -8.5661
 138   1.0000      -0.313447        -8.5293
 139   1.0000      -0.243622        -6.6293
 140   1.0000      -0.231367        -6.2958
 141   1.0000      -0.218204        -5.9376
 142   1.0000      -0.217347        -5.9143
 143   1.0000      -0.214669        -5.8414
 144   0.0000      -0.082417        -2.2427
 145   0.0000      -0.069711        -1.8969
 146   0.0000      -0.056935        -1.5493
 147   0.0000      -0.056130        -1.5274
 148   0.0000      -0.044047        -1.1986

MULLIKEN ATOMIC CHARGES AND SPIN POPULATIONS
--------------------------------------------
   0 Au:    0.281124    0.091903
   1 Au:    0.280403    0.092537
   2 Au:    0.363872   -0.023421
   3 Au:    0.165832   -0.148382
   4 Au:    0.611255   -0.094630
   5 Au:    0.610871   -0.095938
   6 Au:    0.364534   -0.023657
   7 Au:    0.594972   -0.015667
   8 Au:    0.549542   -0.100877
   9 Au:    0.610093   -0.095796
  10 Au:    0.546917   -0.103409
  11 Au:    0.611861   -0.094824
  12 Au:    0.165861   -0.142827
  13 Au:    0.595288   -0.015509
  14 Cr:   -6.352426    2.770498
Sum of atomic charges         :   -0.0000000

LOEWDIN ATOMIC CHARGES AND SPIN POPULATIONS
-------------------------------------------
   0 Au:    0.120116    0.007678
   1 Au:    0.119455    0.007956
   2 Au:    0.060305   -0.087187
   3 Au:    0.017263   -0.104468
   4 Au:    0.137157   -0.160886
   5 Au:    0.136556   -0.160142
   6 Au:    0.060599   -0.087183
   7 Au:    0.118795   -0.106427
   8 Au:    0.112098   -0.126967
   9 Au:    0.136545   -0.160244
  10 Au:    0.112621   -0.129526
  11 Au:    0.137111   -0.161003
  12 Au:    0.016719   -0.101653
  13 Au:    0.118868   -0.106324
  14 Cr:   -1.404207    3.476375

  Mayer bond orders larger than 0.100000
B(  0-Au,  1-Au) :   0.1063 B(  0-Au,  3-Au) :   0.2292 B(  0-Au,  6-Au) :   0.2229
B(  0-Au, 12-Au) :   0.2255 B(  0-Au, 14-Cr) :   0.4930 B(  1-Au,  2-Au) :   0.2233
B(  1-Au,  3-Au) :   0.2252 B(  1-Au, 12-Au) :   0.2279 B(  1-Au, 14-Cr) :   0.4944
B(  2-Au,  4-Au) :   0.1407 B(  2-Au,  9-Au) :   0.1408 B(  2-Au, 13-Au) :   0.1928
B(  2-Au, 14-Cr) :   0.5586 B(  3-Au,  4-Au) :   0.1706 B(  3-Au,  5-Au) :   0.1697
B(  3-Au, 10-Au) :   0.1019 B(  3-Au, 14-Cr) :   0.4789 B(  4-Au,  8-Au) :   0.1305
B(  4-Au, 11-Au) :   0.1012 B(  4-Au, 13-Au) :   0.1374 B(  4-Au, 14-Cr) :   0.4652
B(  5-Au,  6-Au) :   0.1406 B(  5-Au,  7-Au) :   0.1375 B(  5-Au,  8-Au) :   0.1317
B(  5-Au,  9-Au) :   0.1009 B(  5-Au, 14-Cr) :   0.4625 B(  6-Au,  7-Au) :   0.1919
B(  6-Au, 11-Au) :   0.1407 B(  6-Au, 14-Cr) :   0.5572 B(  7-Au,  8-Au) :   0.1395
B(  7-Au, 10-Au) :   0.1414 B(  7-Au, 11-Au) :   0.1382 B(  7-Au, 14-Cr) :   0.4238
B(  8-Au, 10-Au) :   0.1513 B(  8-Au, 12-Au) :   0.1014 B(  8-Au, 13-Au) :   0.1413
B(  8-Au, 14-Cr) :   0.3921 B(  9-Au, 10-Au) :   0.1312 B(  9-Au, 12-Au) :   0.1709
B(  9-Au, 13-Au) :   0.1368 B(  9-Au, 14-Cr) :   0.4622 B( 10-Au, 11-Au) :   0.1297
B( 10-Au, 13-Au) :   0.1393 B( 10-Au, 14-Cr) :   0.3883 B( 11-Au, 12-Au) :   0.1706
B( 11-Au, 14-Cr) :   0.4645 B( 12-Au, 14-Cr) :   0.4867 B( 13-Au, 14-Cr) :   0.4230

MP2 TOTAL ENERGY:    -2942.524245063 Eh
FINAL SINGLE POINT ENERGY     -2942.524245062717

DIPOLE MOMENT
-------------
                                X             Y             Z
Electronic contribution:    -15.67599       4.44839      -0.16328
Nuclear contribution   :     15.61589      -4.42875       0.16087
                        -----------------------------------------
Total Dipole Moment    :     -0.06010       0.01964      -0.00240
                        -----------------------------------------
Magnitude (a.u.)       :      0.06328
Magnitude (Debye)      :      0.16084

Rotational constants in cm-1:     0.001273     0.000991     0.000941
Rotational constants in MHz :    38.154789    29.702152    28.218002

                             ****ORCA TERMINATED NORMALLY****
TOTAL RUN TIME: 0 days 7 hours 34 minutes 47 seconds 849 msec
