                         Program Version 5.0.3 -  RELEASE  -
|  1> !PBE def2-TZVP VERYSLOWCONV
|  2>
|  3> %scf
|  4>   AutoTRAHIter 200
|  5>   maxiter 400
|  6> end
|  7>
|  8>
|  9> %pal nprocs 6 end
| 10>
| 11> *xyzfile 0 5 pbe.xyz
| 12>
| 13> $new_job
| 14>
| 15> !PBE def2-TZVP VERYSLOWCONV
| 16>
| 17> %scf
| 18>   AutoTRAHIter 200
| 19>   maxiter 400
| 20> end
| 21>
| 22>
| 23> %pal nprocs 6 end
| 24>
| 25> *xyzfile 0 3 pbe.xyz
| 26>
| 27>
| 28>
| 29>
| 30>
| 31>                          ****END OF INPUT****
 Total Charge           Charge          ....    0
 Multiplicity           Mult            ....    5
 Number of Electrons    NEL             ....  290
FINAL SINGLE POINT ENERGY     -2945.822140957985

CARTESIAN COORDINATES (ANGSTROEM)
---------------------------------
  Au     6.072828   10.225577    6.346267
  Au     5.319850    7.580037    7.271152
  Au     7.491862    5.970346    7.598326
  Au     7.421517    8.985930    8.450828
  Au     9.256769    7.200801    9.500032
  Au    10.036991    9.880585    8.579552
  Au     8.774391   10.454423    6.064896
  Au    11.452148    9.587235    6.120835
  Au    11.763912    7.647248    8.221301
  Au     8.911294    5.790258    5.107977
  Au    11.548039    6.783227    5.515033
  Au     9.672319    8.472304    4.189061
  Au     7.153253    7.925323    5.195241
  Au    10.224452    5.305806    7.595382
  Cr     9.379189    7.860585    6.844275

 Multiplicity           Mult            ....    3
 Number of Electrons    NEL             ....  290
 Basis Dimension        Dim             ....  605

ORBITAL ENERGIES
----------------
                 SPIN UP ORBITALS
  NO   OCC          E(Eh)            E(eV)
   0   1.0000    -214.504999     -5836.9778
   1   1.0000     -24.306471      -661.4127
   2   1.0000     -20.672427      -562.5253
   3   1.0000     -20.670533      -562.4738
   4   1.0000     -20.667555      -562.3927
   5   1.0000      -4.032708      -109.7356
   6   1.0000      -4.032682      -109.7349
   7   1.0000      -4.026741      -109.5732
   8   1.0000      -4.026721      -109.5726
   9   1.0000      -4.026688      -109.5718
  10   1.0000      -4.026663      -109.5711
  11   1.0000      -4.026530      -109.5674
  12   1.0000      -4.026498      -109.5666
  13   1.0000      -4.024606      -109.5151
  14   1.0000      -4.024570      -109.5141
  15   1.0000      -4.024209      -109.5043
  16   1.0000      -4.024131      -109.5022
  17   1.0000      -4.016677      -109.2993
  18   1.0000      -4.016593      -109.2970
  19   1.0000      -2.805422       -76.3394
  20   1.0000      -2.249968       -61.2247
  21   1.0000      -2.249907       -61.2231
  22   1.0000      -2.244427       -61.0740
  23   1.0000      -2.244016       -61.0628
  24   1.0000      -2.243816       -61.0573
  25   1.0000      -2.243690       -61.0539
  26   1.0000      -2.243602       -61.0515
  27   1.0000      -2.243518       -61.0492
  28   1.0000      -2.242553       -61.0230
  29   1.0000      -2.242293       -61.0159
  30   1.0000      -2.241766       -61.0016
  31   1.0000      -2.241459       -60.9932
  32   1.0000      -2.240597       -60.9697
  33   1.0000      -2.240019       -60.9540
  34   1.0000      -2.239663       -60.9443
  35   1.0000      -2.239644       -60.9438
  36   1.0000      -2.239449       -60.9385
  37   1.0000      -2.239424       -60.9378
  38   1.0000      -2.239243       -60.9329
  39   1.0000      -2.239117       -60.9295
  40   1.0000      -2.238690       -60.9178
  41   1.0000      -2.238183       -60.9040
  42   1.0000      -2.238061       -60.9007
  43   1.0000      -2.237978       -60.8985
  44   1.0000      -2.237794       -60.8935
  45   1.0000      -2.237779       -60.8931
  46   1.0000      -2.236752       -60.8651
  47   1.0000      -2.236751       -60.8651
  48   1.0000      -2.236307       -60.8530
  49   1.0000      -2.235904       -60.8420
  50   1.0000      -2.235892       -60.8417
  51   1.0000      -2.235550       -60.8324
  52   1.0000      -2.235508       -60.8313
  53   1.0000      -2.234895       -60.8146
  54   1.0000      -2.234766       -60.8111
  55   1.0000      -2.234613       -60.8069
  56   1.0000      -2.230673       -60.6997
  57   1.0000      -2.230560       -60.6966
  58   1.0000      -2.230514       -60.6954
  59   1.0000      -2.228631       -60.6441
  60   1.0000      -2.227860       -60.6231
  61   1.0000      -2.227725       -60.6195
  62   1.0000      -1.797608       -48.9154
  63   1.0000      -1.795245       -48.8511
  64   1.0000      -1.791760       -48.7563
  65   1.0000      -0.435106       -11.8398
  66   1.0000      -0.389862       -10.6087
  67   1.0000      -0.384851       -10.4723
  68   1.0000      -0.383614       -10.4387
  69   1.0000      -0.374817       -10.1993
  70   1.0000      -0.370695       -10.0871
  71   1.0000      -0.368606       -10.0303
  72   1.0000      -0.367477        -9.9996
  73   1.0000      -0.366195        -9.9647
  74   1.0000      -0.359237        -9.7753
  75   1.0000      -0.356244        -9.6939
  76   1.0000      -0.351374        -9.5614
  77   1.0000      -0.348196        -9.4749
  78   1.0000      -0.345926        -9.4131
  79   1.0000      -0.344885        -9.3848
  80   1.0000      -0.344254        -9.3676
  81   1.0000      -0.344149        -9.3648
  82   1.0000      -0.340960        -9.2780
  83   1.0000      -0.338981        -9.2241
  84   1.0000      -0.337293        -9.1782
  85   1.0000      -0.335337        -9.1250
  86   1.0000      -0.335052        -9.1172
  87   1.0000      -0.333834        -9.0841
  88   1.0000      -0.331979        -9.0336
  89   1.0000      -0.329974        -8.9790
  90   1.0000      -0.324115        -8.8196
  91   1.0000      -0.317316        -8.6346
  92   1.0000      -0.317178        -8.6309
  93   1.0000      -0.315621        -8.5885
  94   1.0000      -0.310958        -8.4616
  95   1.0000      -0.310324        -8.4443
  96   1.0000      -0.309692        -8.4271
  97   1.0000      -0.307519        -8.3680
  98   1.0000      -0.301901        -8.2151
  99   1.0000      -0.298028        -8.1098
 100   1.0000      -0.292405        -7.9567
 101   1.0000      -0.290362        -7.9012
 102   1.0000      -0.289671        -7.8824
 103   1.0000      -0.288878        -7.8608
 104   1.0000      -0.286904        -7.8071
 105   1.0000      -0.286469        -7.7952
 106   1.0000      -0.281997        -7.6735
 107   1.0000      -0.279071        -7.5939
 108   1.0000      -0.276618        -7.5272
 109   1.0000      -0.276454        -7.5227
 110   1.0000      -0.275911        -7.5079
 111   1.0000      -0.275786        -7.5045
 112   1.0000      -0.273938        -7.4542
 113   1.0000      -0.273221        -7.4347
 114   1.0000      -0.272184        -7.4065
 115   1.0000      -0.267927        -7.2907
 116   1.0000      -0.267786        -7.2868
 117   1.0000      -0.267456        -7.2778
 118   1.0000      -0.265837        -7.2338
 119   1.0000      -0.265478        -7.2240
 120   1.0000      -0.262326        -7.1382
 121   1.0000      -0.260837        -7.0977
 122   1.0000      -0.260560        -7.0902
 123   1.0000      -0.259866        -7.0713
 124   1.0000      -0.258867        -7.0441
 125   1.0000      -0.258731        -7.0404
 126   1.0000      -0.253813        -6.9066
 127   1.0000      -0.252393        -6.8680
 128   1.0000      -0.252160        -6.8616
 129   1.0000      -0.249759        -6.7963
 130   1.0000      -0.249030        -6.7765
 131   1.0000      -0.248587        -6.7644
 132   1.0000      -0.245750        -6.6872
 133   1.0000      -0.245524        -6.6810
 134   1.0000      -0.243791        -6.6339
 135   1.0000      -0.242646        -6.6027
 136   1.0000      -0.240466        -6.5434
 137   1.0000      -0.235196        -6.4000
 138   1.0000      -0.231767        -6.3067
 139   1.0000      -0.223392        -6.0788
 140   1.0000      -0.218569        -5.9476
 141   1.0000      -0.216494        -5.8911
 142   1.0000      -0.213390        -5.8066
 143   1.0000      -0.211505        -5.7553
 144   1.0000      -0.196086        -5.3358
 145   1.0000      -0.191643        -5.2149
 146   0.0000      -0.174995        -4.7619
 147   0.0000      -0.173301        -4.7158
 148   0.0000      -0.172130        -4.6839
 149   0.0000      -0.139587        -3.7983
 150   0.0000      -0.129832        -3.5329

                 SPIN DOWN ORBITALS
  NO   OCC          E(Eh)            E(eV)
   0   1.0000    -214.504604     -5836.9670
   1   1.0000     -24.262786      -660.2240
   2   1.0000     -20.641440      -561.6821
   3   1.0000     -20.637738      -561.5814
   4   1.0000     -20.631209      -561.4037
   5   1.0000      -4.032475      -109.7292
   6   1.0000      -4.032449      -109.7285
   7   1.0000      -4.026657      -109.5709
   8   1.0000      -4.026643      -109.5705
   9   1.0000      -4.026600      -109.5694
  10   1.0000      -4.026584      -109.5689
  11   1.0000      -4.026277      -109.5606
  12   1.0000      -4.026247      -109.5598
  13   1.0000      -4.024481      -109.5117
  14   1.0000      -4.024413      -109.5098
  15   1.0000      -4.024324      -109.5074
  16   1.0000      -4.024293      -109.5066
  17   1.0000      -4.017085      -109.3104
  18   1.0000      -4.017002      -109.3082
  19   1.0000      -2.688121       -73.1475
  20   1.0000      -2.249550       -61.2134
  21   1.0000      -2.249477       -61.2114
  22   1.0000      -2.243881       -61.0591
  23   1.0000      -2.243804       -61.0570
  24   1.0000      -2.243718       -61.0547
  25   1.0000      -2.243467       -61.0478
  26   1.0000      -2.243284       -61.0429
  27   1.0000      -2.243270       -61.0425
  28   1.0000      -2.242116       -61.0111
  29   1.0000      -2.241890       -61.0049
  30   1.0000      -2.241412       -60.9919
  31   1.0000      -2.241073       -60.9827
  32   1.0000      -2.240292       -60.9615
  33   1.0000      -2.240016       -60.9539
  34   1.0000      -2.239584       -60.9422
  35   1.0000      -2.239573       -60.9419
  36   1.0000      -2.239493       -60.9397
  37   1.0000      -2.239135       -60.9300
  38   1.0000      -2.238891       -60.9233
  39   1.0000      -2.238811       -60.9211
  40   1.0000      -2.238522       -60.9133
  41   1.0000      -2.238092       -60.9016
  42   1.0000      -2.237939       -60.8974
  43   1.0000      -2.237841       -60.8947
  44   1.0000      -2.237728       -60.8917
  45   1.0000      -2.237515       -60.8859
  46   1.0000      -2.236762       -60.8654
  47   1.0000      -2.236634       -60.8619
  48   1.0000      -2.236513       -60.8586
  49   1.0000      -2.236172       -60.8493
  50   1.0000      -2.236025       -60.8453
  51   1.0000      -2.235685       -60.8361
  52   1.0000      -2.235547       -60.8323
  53   1.0000      -2.235108       -60.8204
  54   1.0000      -2.234957       -60.8163
  55   1.0000      -2.234928       -60.8155
  56   1.0000      -2.231116       -60.7118
  57   1.0000      -2.230949       -60.7072
  58   1.0000      -2.230673       -60.6997
  59   1.0000      -2.228863       -60.6504
  60   1.0000      -2.228586       -60.6429
  61   1.0000      -2.228457       -60.6394
  62   1.0000      -1.689836       -45.9828
  63   1.0000      -1.681559       -45.7575
  64   1.0000      -1.666726       -45.3539
  65   1.0000      -0.429586       -11.6896
  66   1.0000      -0.389083       -10.5875
  67   1.0000      -0.385084       -10.4787
  68   1.0000      -0.383289       -10.4298
  69   1.0000      -0.371275       -10.1029
  70   1.0000      -0.367420        -9.9980
  71   1.0000      -0.365296        -9.9402
  72   1.0000      -0.362992        -9.8775
  73   1.0000      -0.362208        -9.8562
  74   1.0000      -0.357134        -9.7181
  75   1.0000      -0.355631        -9.6772
  76   1.0000      -0.351310        -9.5596
  77   1.0000      -0.348630        -9.4867
  78   1.0000      -0.346643        -9.4326
  79   1.0000      -0.345870        -9.4116
  80   1.0000      -0.345612        -9.4046
  81   1.0000      -0.344838        -9.3835
  82   1.0000      -0.341385        -9.2896
  83   1.0000      -0.339351        -9.2342
  84   1.0000      -0.337875        -9.1941
  85   1.0000      -0.336062        -9.1447
  86   1.0000      -0.335617        -9.1326
  87   1.0000      -0.334562        -9.1039
  88   1.0000      -0.331933        -9.0324
  89   1.0000      -0.331207        -9.0126
  90   1.0000      -0.324229        -8.8227
  91   1.0000      -0.317862        -8.6495
  92   1.0000      -0.317150        -8.6301
  93   1.0000      -0.316804        -8.6207
  94   1.0000      -0.311260        -8.4698
  95   1.0000      -0.310681        -8.4541
  96   1.0000      -0.307789        -8.3754
  97   1.0000      -0.306886        -8.3508
  98   1.0000      -0.301398        -8.2015
  99   1.0000      -0.299000        -8.1362
 100   1.0000      -0.293293        -7.9809
 101   1.0000      -0.287715        -7.8291
 102   1.0000      -0.287306        -7.8180
 103   1.0000      -0.286623        -7.7994
 104   1.0000      -0.284744        -7.7483
 105   1.0000      -0.283906        -7.7255
 106   1.0000      -0.281015        -7.6468
 107   1.0000      -0.279379        -7.6023
 108   1.0000      -0.277124        -7.5409
 109   1.0000      -0.277039        -7.5386
 110   1.0000      -0.276861        -7.5338
 111   1.0000      -0.275889        -7.5073
 112   1.0000      -0.275098        -7.4858
 113   1.0000      -0.274117        -7.4591
 114   1.0000      -0.272946        -7.4272
 115   1.0000      -0.268684        -7.3113
 116   1.0000      -0.268347        -7.3021
 117   1.0000      -0.268209        -7.2983
 118   1.0000      -0.266333        -7.2473
 119   1.0000      -0.265971        -7.2374
 120   1.0000      -0.262877        -7.1532
 121   1.0000      -0.261611        -7.1188
 122   1.0000      -0.261590        -7.1182
 123   1.0000      -0.261180        -7.1071
 124   1.0000      -0.260016        -7.0754
 125   1.0000      -0.259844        -7.0707
 126   1.0000      -0.254634        -6.9290
 127   1.0000      -0.252815        -6.8794
 128   1.0000      -0.252651        -6.8750
 129   1.0000      -0.251065        -6.8318
 130   1.0000      -0.250171        -6.8075
 131   1.0000      -0.249675        -6.7940
 132   1.0000      -0.246868        -6.7176
 133   1.0000      -0.246554        -6.7091
 134   1.0000      -0.245752        -6.6872
 135   1.0000      -0.242812        -6.6073
 136   1.0000      -0.241371        -6.5680
 137   1.0000      -0.235684        -6.4133
 138   1.0000      -0.231869        -6.3095
 139   1.0000      -0.217984        -5.9317
 140   1.0000      -0.210723        -5.7341
 141   1.0000      -0.201510        -5.4834
 142   1.0000      -0.198345        -5.3972
 143   1.0000      -0.196000        -5.3334
 144   0.0000      -0.145962        -3.9718
 145   0.0000      -0.136683        -3.7193
 146   0.0000      -0.124614        -3.3909
 147   0.0000      -0.124576        -3.3899
 148   0.0000      -0.117152        -3.1879

MULLIKEN ATOMIC CHARGES AND SPIN POPULATIONS
--------------------------------------------
   0 Au:    0.317301    0.065838
   1 Au:    0.316390    0.065602
   2 Au:    0.385226   -0.025906
   3 Au:    0.163451   -0.071044
   4 Au:    0.616878   -0.052398
   5 Au:    0.615371   -0.053046
   6 Au:    0.385861   -0.025606
   7 Au:    0.609725    0.000046
   8 Au:    0.574662   -0.047870
   9 Au:    0.614993   -0.052923
  10 Au:    0.574330   -0.047491
  11 Au:    0.617276   -0.052550
  12 Au:    0.163574   -0.070876
  13 Au:    0.610291    0.000161
  14 Cr:   -6.565329    2.368063
Sum of atomic charges         :   -0.0000000

LOEWDIN ATOMIC CHARGES AND SPIN POPULATIONS
-------------------------------------------
   0 Au:    0.103751    0.012488
   1 Au:    0.103320    0.012250
   2 Au:    0.077926   -0.055794
   3 Au:    0.035427   -0.055345
   4 Au:    0.149112   -0.107242
   5 Au:    0.148525   -0.107211
   6 Au:    0.078113   -0.055577
   7 Au:    0.127912   -0.064285
   8 Au:    0.120629   -0.079647
   9 Au:    0.148537   -0.107094
  10 Au:    0.120555   -0.079359
  11 Au:    0.148973   -0.107277
  12 Au:    0.035503   -0.055283
  13 Au:    0.127954   -0.064252
  14 Cr:   -1.526236    2.913628

  Mayer bond orders larger than 0.100000
B(  0-Au,  1-Au) :   0.1462 B(  0-Au,  3-Au) :   0.2664 B(  0-Au,  6-Au) :   0.2708
B(  0-Au, 12-Au) :   0.2645 B(  0-Au, 14-Cr) :   0.4482 B(  1-Au,  2-Au) :   0.2712
B(  1-Au,  3-Au) :   0.2634 B(  1-Au, 12-Au) :   0.2655 B(  1-Au, 14-Cr) :   0.4498
B(  2-Au,  4-Au) :   0.1778 B(  2-Au,  9-Au) :   0.1772 B(  2-Au, 12-Au) :   0.1017
B(  2-Au, 13-Au) :   0.2298 B(  2-Au, 14-Cr) :   0.5701 B(  3-Au,  4-Au) :   0.2192
B(  3-Au,  5-Au) :   0.2186 B(  3-Au,  6-Au) :   0.1025 B(  3-Au, 10-Au) :   0.1041
B(  3-Au, 14-Cr) :   0.5406 B(  4-Au,  5-Au) :   0.1239 B(  4-Au,  8-Au) :   0.1747
B(  4-Au, 13-Au) :   0.1745 B(  4-Au, 14-Cr) :   0.5844 B(  5-Au,  6-Au) :   0.1775
B(  5-Au,  7-Au) :   0.1753 B(  5-Au,  8-Au) :   0.1763 B(  5-Au, 14-Cr) :   0.5813
B(  6-Au,  7-Au) :   0.2285 B(  6-Au, 11-Au) :   0.1772 B(  6-Au, 14-Cr) :   0.5694
B(  7-Au,  8-Au) :   0.1788 B(  7-Au, 10-Au) :   0.1824 B(  7-Au, 11-Au) :   0.1754
B(  7-Au, 14-Cr) :   0.4647 B(  8-Au, 10-Au) :   0.1988 B(  8-Au, 12-Au) :   0.1042
B(  8-Au, 13-Au) :   0.1817 B(  8-Au, 14-Cr) :   0.4745 B(  9-Au, 10-Au) :   0.1761
B(  9-Au, 11-Au) :   0.1251 B(  9-Au, 12-Au) :   0.2190 B(  9-Au, 13-Au) :   0.1743
B(  9-Au, 14-Cr) :   0.5815 B( 10-Au, 11-Au) :   0.1740 B( 10-Au, 13-Au) :   0.1795
B( 10-Au, 14-Cr) :   0.4739 B( 11-Au, 12-Au) :   0.2187 B( 11-Au, 14-Cr) :   0.5837
B( 12-Au, 14-Cr) :   0.5411 B( 13-Au, 14-Cr) :   0.4640

FINAL SINGLE POINT ENERGY     -2945.842260717556

DIPOLE MOMENT
-------------
                                X             Y             Z
Electronic contribution:    -15.63980       4.43729      -0.16169
Nuclear contribution   :     15.61589      -4.42875       0.16087
                        -----------------------------------------
Total Dipole Moment    :     -0.02392       0.00854      -0.00082
                        -----------------------------------------
Magnitude (a.u.)       :      0.02541
Magnitude (Debye)      :      0.06458

Rotational constants in cm-1:     0.001273     0.000991     0.000941
Rotational constants in MHz :    38.154789    29.702152    28.218002

                             ****ORCA TERMINATED NORMALLY****
TOTAL RUN TIME: 0 days 1 hours 22 minutes 55 seconds 922 msec
