                         Program Version 5.0.3 -  RELEASE  -
|  1> !R2SCAN def2-TZVP VERYSLOWCONV
|  2> !KDIIS
|  3> %scf
|  4>   AutoTRAHIter 200
|  5>   maxiter 400
|  6> end
|  7>
|  8> %pal nprocs 6 end
|  9>
| 10> *xyzfile 0 5 pbe.xyz
| 11>
| 12> $new_job
| 13>
| 14> !R2SCAN def2-TZVP VERYSLOWCONV
| 15> !KDIIS
| 16> %scf
| 17>   AutoTRAHIter 200
| 18>   maxiter 400
| 19> end
| 20>
| 21>
| 22> %pal nprocs 6 end
| 23>
| 24> *xyzfile 0 3 pbe.xyz
| 25>
| 26>
| 27>
| 28>
| 29>
| 30>                          ****END OF INPUT****
 Total Charge           Charge          ....    0
 Multiplicity           Mult            ....    5
 Number of Electrons    NEL             ....  290
FINAL SINGLE POINT ENERGY     -2946.305009198629

CARTESIAN COORDINATES (ANGSTROEM)
---------------------------------
  Au     6.072828   10.225577    6.346267
  Au     5.319850    7.580037    7.271152
  Au     7.491862    5.970346    7.598326
  Au     7.421517    8.985930    8.450828
  Au     9.256769    7.200801    9.500032
  Au    10.036991    9.880585    8.579552
  Au     8.774391   10.454423    6.064896
  Au    11.452148    9.587235    6.120835
  Au    11.763912    7.647248    8.221301
  Au     8.911294    5.790258    5.107977
  Au    11.548039    6.783227    5.515033
  Au     9.672319    8.472304    4.189061
  Au     7.153253    7.925323    5.195241
  Au    10.224452    5.305806    7.595382
  Cr     9.379189    7.860585    6.844275

 Multiplicity           Mult            ....    3
 Number of Electrons    NEL             ....  290
 Basis Dimension        Dim             ....  605

ORBITAL ENERGIES
----------------
                 SPIN UP ORBITALS
  NO   OCC          E(Eh)            E(eV)
   0   1.0000    -215.297764     -5858.5500
   1   1.0000     -24.599110      -669.3758
   2   1.0000     -20.867024      -567.8206
   3   1.0000     -20.865688      -567.7842
   4   1.0000     -20.863869      -567.7348
   5   1.0000      -4.123061      -112.1942
   6   1.0000      -4.123033      -112.1934
   7   1.0000      -4.117086      -112.0316
   8   1.0000      -4.117057      -112.0308
   9   1.0000      -4.117032      -112.0301
  10   1.0000      -4.116990      -112.0290
  11   1.0000      -4.116911      -112.0269
  12   1.0000      -4.116878      -112.0259
  13   1.0000      -4.115127      -111.9783
  14   1.0000      -4.115094      -111.9774
  15   1.0000      -4.114496      -111.9611
  16   1.0000      -4.114403      -111.9586
  17   1.0000      -4.107123      -111.7605
  18   1.0000      -4.107027      -111.7579
  19   1.0000      -2.917488       -79.3889
  20   1.0000      -2.313130       -62.9435
  21   1.0000      -2.313064       -62.9417
  22   1.0000      -2.307755       -62.7972
  23   1.0000      -2.307319       -62.7853
  24   1.0000      -2.307136       -62.7804
  25   1.0000      -2.306972       -62.7759
  26   1.0000      -2.306930       -62.7748
  27   1.0000      -2.306826       -62.7719
  28   1.0000      -2.305737       -62.7423
  29   1.0000      -2.305473       -62.7351
  30   1.0000      -2.304956       -62.7210
  31   1.0000      -2.304595       -62.7112
  32   1.0000      -2.303834       -62.6905
  33   1.0000      -2.303291       -62.6757
  34   1.0000      -2.302963       -62.6668
  35   1.0000      -2.302952       -62.6665
  36   1.0000      -2.302763       -62.6614
  37   1.0000      -2.302710       -62.6599
  38   1.0000      -2.302630       -62.6577
  39   1.0000      -2.302512       -62.6545
  40   1.0000      -2.302060       -62.6422
  41   1.0000      -2.301329       -62.6224
  42   1.0000      -2.301303       -62.6216
  43   1.0000      -2.301275       -62.6209
  44   1.0000      -2.301263       -62.6205
  45   1.0000      -2.301112       -62.6164
  46   1.0000      -2.300124       -62.5895
  47   1.0000      -2.299963       -62.5852
  48   1.0000      -2.299589       -62.5750
  49   1.0000      -2.299311       -62.5674
  50   1.0000      -2.299086       -62.5613
  51   1.0000      -2.298946       -62.5575
  52   1.0000      -2.298894       -62.5561
  53   1.0000      -2.298021       -62.5323
  54   1.0000      -2.298008       -62.5320
  55   1.0000      -2.297722       -62.5242
  56   1.0000      -2.293780       -62.4169
  57   1.0000      -2.293658       -62.4136
  58   1.0000      -2.293577       -62.4114
  59   1.0000      -2.291582       -62.3571
  60   1.0000      -2.290973       -62.3405
  61   1.0000      -2.290830       -62.3366
  62   1.0000      -1.865373       -50.7594
  63   1.0000      -1.864357       -50.7317
  64   1.0000      -1.862519       -50.6817
  65   1.0000      -0.439670       -11.9640
  66   1.0000      -0.394745       -10.7416
  67   1.0000      -0.390326       -10.6213
  68   1.0000      -0.388898       -10.5824
  69   1.0000      -0.382865       -10.4183
  70   1.0000      -0.378226       -10.2920
  71   1.0000      -0.376164       -10.2359
  72   1.0000      -0.375705       -10.2234
  73   1.0000      -0.374369       -10.1871
  74   1.0000      -0.367164        -9.9910
  75   1.0000      -0.365021        -9.9327
  76   1.0000      -0.359878        -9.7928
  77   1.0000      -0.357058        -9.7160
  78   1.0000      -0.354811        -9.6549
  79   1.0000      -0.354052        -9.6342
  80   1.0000      -0.353105        -9.6085
  81   1.0000      -0.352982        -9.6051
  82   1.0000      -0.349946        -9.5225
  83   1.0000      -0.347724        -9.4621
  84   1.0000      -0.346430        -9.4268
  85   1.0000      -0.344259        -9.3678
  86   1.0000      -0.343935        -9.3590
  87   1.0000      -0.342760        -9.3270
  88   1.0000      -0.340818        -9.2741
  89   1.0000      -0.338578        -9.2132
  90   1.0000      -0.332109        -9.0372
  91   1.0000      -0.325499        -8.8573
  92   1.0000      -0.325300        -8.8519
  93   1.0000      -0.324165        -8.8210
  94   1.0000      -0.319427        -8.6920
  95   1.0000      -0.318573        -8.6688
  96   1.0000      -0.318200        -8.6587
  97   1.0000      -0.315904        -8.5962
  98   1.0000      -0.310325        -8.4444
  99   1.0000      -0.306708        -8.3459
 100   1.0000      -0.300928        -8.1887
 101   1.0000      -0.298949        -8.1348
 102   1.0000      -0.297890        -8.1060
 103   1.0000      -0.297154        -8.0860
 104   1.0000      -0.294561        -8.0154
 105   1.0000      -0.293945        -7.9987
 106   1.0000      -0.289709        -7.8834
 107   1.0000      -0.286880        -7.8064
 108   1.0000      -0.284361        -7.7379
 109   1.0000      -0.284133        -7.7316
 110   1.0000      -0.283868        -7.7244
 111   1.0000      -0.283762        -7.7216
 112   1.0000      -0.281145        -7.6503
 113   1.0000      -0.280082        -7.6214
 114   1.0000      -0.279939        -7.6175
 115   1.0000      -0.275664        -7.5012
 116   1.0000      -0.275485        -7.4963
 117   1.0000      -0.275020        -7.4837
 118   1.0000      -0.273513        -7.4427
 119   1.0000      -0.273099        -7.4314
 120   1.0000      -0.270218        -7.3530
 121   1.0000      -0.268115        -7.2958
 122   1.0000      -0.267760        -7.2861
 123   1.0000      -0.267649        -7.2831
 124   1.0000      -0.266261        -7.2453
 125   1.0000      -0.266114        -7.2413
 126   1.0000      -0.261144        -7.1061
 127   1.0000      -0.259705        -7.0669
 128   1.0000      -0.259545        -7.0626
 129   1.0000      -0.257143        -6.9972
 130   1.0000      -0.256320        -6.9748
 131   1.0000      -0.255642        -6.9564
 132   1.0000      -0.251988        -6.8570
 133   1.0000      -0.251736        -6.8501
 134   1.0000      -0.249552        -6.7907
 135   1.0000      -0.248553        -6.7635
 136   1.0000      -0.246296        -6.7020
 137   1.0000      -0.241868        -6.5816
 138   1.0000      -0.238425        -6.4879
 139   1.0000      -0.229428        -6.2431
 140   1.0000      -0.225118        -6.1258
 141   1.0000      -0.220078        -5.9886
 142   1.0000      -0.219627        -5.9764
 143   1.0000      -0.214175        -5.8280
 144   1.0000      -0.201267        -5.4767
 145   1.0000      -0.195848        -5.3293
 146   0.0000      -0.173301        -4.7158
 147   0.0000      -0.170767        -4.6468
 148   0.0000      -0.170264        -4.6331
 149   0.0000      -0.134183        -3.6513
 150   0.0000      -0.126191        -3.4338

                 SPIN DOWN ORBITALS
  NO   OCC          E(Eh)            E(eV)
   0   1.0000    -215.297178     -5858.5341
   1   1.0000     -24.538698      -667.7319
   2   1.0000     -20.822947      -566.6212
   3   1.0000     -20.819706      -566.5330
   4   1.0000     -20.814366      -566.3877
   5   1.0000      -4.123065      -112.1943
   6   1.0000      -4.123037      -112.1936
   7   1.0000      -4.117162      -112.0337
   8   1.0000      -4.117145      -112.0332
   9   1.0000      -4.117098      -112.0319
  10   1.0000      -4.117076      -112.0313
  11   1.0000      -4.116821      -112.0244
  12   1.0000      -4.116788      -112.0235
  13   1.0000      -4.115085      -111.9772
  14   1.0000      -4.115030      -111.9757
  15   1.0000      -4.114881      -111.9716
  16   1.0000      -4.114822      -111.9700
  17   1.0000      -4.107544      -111.7719
  18   1.0000      -4.107449      -111.7694
  19   1.0000      -2.758942       -75.0746
  20   1.0000      -2.312820       -62.9350
  21   1.0000      -2.312745       -62.9330
  22   1.0000      -2.307324       -62.7855
  23   1.0000      -2.307229       -62.7829
  24   1.0000      -2.307138       -62.7804
  25   1.0000      -2.306883       -62.7735
  26   1.0000      -2.306538       -62.7641
  27   1.0000      -2.306523       -62.7637
  28   1.0000      -2.305389       -62.7328
  29   1.0000      -2.305152       -62.7264
  30   1.0000      -2.304663       -62.7131
  31   1.0000      -2.304260       -62.7021
  32   1.0000      -2.303641       -62.6852
  33   1.0000      -2.303270       -62.6752
  34   1.0000      -2.302854       -62.6638
  35   1.0000      -2.302831       -62.6632
  36   1.0000      -2.302780       -62.6618
  37   1.0000      -2.302682       -62.6592
  38   1.0000      -2.302234       -62.6470
  39   1.0000      -2.302141       -62.6444
  40   1.0000      -2.301883       -62.6374
  41   1.0000      -2.301380       -62.6237
  42   1.0000      -2.301330       -62.6224
  43   1.0000      -2.301164       -62.6179
  44   1.0000      -2.300979       -62.6128
  45   1.0000      -2.300815       -62.6083
  46   1.0000      -2.300104       -62.5890
  47   1.0000      -2.299840       -62.5818
  48   1.0000      -2.299762       -62.5797
  49   1.0000      -2.299451       -62.5712
  50   1.0000      -2.299400       -62.5699
  51   1.0000      -2.299098       -62.5616
  52   1.0000      -2.298923       -62.5569
  53   1.0000      -2.298272       -62.5392
  54   1.0000      -2.298214       -62.5376
  55   1.0000      -2.298144       -62.5357
  56   1.0000      -2.294301       -62.4311
  57   1.0000      -2.294122       -62.4262
  58   1.0000      -2.293809       -62.4177
  59   1.0000      -2.291902       -62.3658
  60   1.0000      -2.291845       -62.3643
  61   1.0000      -2.291711       -62.3606
  62   1.0000      -1.714781       -46.6616
  63   1.0000      -1.707614       -46.4665
  64   1.0000      -1.695719       -46.1429
  65   1.0000      -0.434030       -11.8106
  66   1.0000      -0.394341       -10.7306
  67   1.0000      -0.391535       -10.6542
  68   1.0000      -0.389314       -10.5938
  69   1.0000      -0.378799       -10.3076
  70   1.0000      -0.374821       -10.1994
  71   1.0000      -0.372733       -10.1426
  72   1.0000      -0.370500       -10.0818
  73   1.0000      -0.369708       -10.0603
  74   1.0000      -0.365465        -9.9448
  75   1.0000      -0.364373        -9.9151
  76   1.0000      -0.360202        -9.8016
  77   1.0000      -0.357949        -9.7403
  78   1.0000      -0.355799        -9.6818
  79   1.0000      -0.355304        -9.6683
  80   1.0000      -0.354936        -9.6583
  81   1.0000      -0.353858        -9.6290
  82   1.0000      -0.350803        -9.5458
  83   1.0000      -0.348343        -9.4789
  84   1.0000      -0.347204        -9.4479
  85   1.0000      -0.345121        -9.3912
  86   1.0000      -0.344824        -9.3831
  87   1.0000      -0.343697        -9.3525
  88   1.0000      -0.341198        -9.2845
  89   1.0000      -0.340430        -9.2636
  90   1.0000      -0.332854        -9.0574
  91   1.0000      -0.326518        -8.8850
  92   1.0000      -0.325996        -8.8708
  93   1.0000      -0.325804        -8.8656
  94   1.0000      -0.319875        -8.7042
  95   1.0000      -0.319468        -8.6932
  96   1.0000      -0.316299        -8.6069
  97   1.0000      -0.315455        -8.5840
  98   1.0000      -0.309740        -8.4285
  99   1.0000      -0.307837        -8.3767
 100   1.0000      -0.301934        -8.2161
 101   1.0000      -0.295631        -8.0445
 102   1.0000      -0.295350        -8.0369
 103   1.0000      -0.294289        -8.0080
 104   1.0000      -0.292590        -7.9618
 105   1.0000      -0.291879        -7.9424
 106   1.0000      -0.288842        -7.8598
 107   1.0000      -0.287308        -7.8180
 108   1.0000      -0.285947        -7.7810
 109   1.0000      -0.285797        -7.7769
 110   1.0000      -0.284828        -7.7506
 111   1.0000      -0.283524        -7.7151
 112   1.0000      -0.283098        -7.7035
 113   1.0000      -0.281850        -7.6695
 114   1.0000      -0.281109        -7.6494
 115   1.0000      -0.276961        -7.5365
 116   1.0000      -0.276566        -7.5258
 117   1.0000      -0.276529        -7.5247
 118   1.0000      -0.274449        -7.4681
 119   1.0000      -0.273775        -7.4498
 120   1.0000      -0.271024        -7.3750
 121   1.0000      -0.269775        -7.3410
 122   1.0000      -0.269514        -7.3339
 123   1.0000      -0.269162        -7.3243
 124   1.0000      -0.268297        -7.3007
 125   1.0000      -0.267525        -7.2797
 126   1.0000      -0.262518        -7.1435
 127   1.0000      -0.260616        -7.0917
 128   1.0000      -0.260081        -7.0772
 129   1.0000      -0.259254        -7.0547
 130   1.0000      -0.258074        -7.0226
 131   1.0000      -0.257082        -6.9956
 132   1.0000      -0.253832        -6.9071
 133   1.0000      -0.253316        -6.8931
 134   1.0000      -0.252515        -6.8713
 135   1.0000      -0.249666        -6.7937
 136   1.0000      -0.248448        -6.7606
 137   1.0000      -0.242410        -6.5963
 138   1.0000      -0.238362        -6.4862
 139   1.0000      -0.219974        -5.9858
 140   1.0000      -0.212113        -5.7719
 141   1.0000      -0.202316        -5.5053
 142   1.0000      -0.199043        -5.4162
 143   1.0000      -0.196463        -5.3460
 144   0.0000      -0.140552        -3.8246
 145   0.0000      -0.131609        -3.5813
 146   0.0000      -0.119589        -3.2542
 147   0.0000      -0.119132        -3.2417
 148   0.0000      -0.108338        -2.9480

MULLIKEN ATOMIC CHARGES AND SPIN POPULATIONS
--------------------------------------------
   0 Au:    0.280307    0.076011
   1 Au:    0.279273    0.075759
   2 Au:    0.338772   -0.052112
   3 Au:    0.162239   -0.108408
   4 Au:    0.561685   -0.087039
   5 Au:    0.560961   -0.087391
   6 Au:    0.339491   -0.051763
   7 Au:    0.550292   -0.015811
   8 Au:    0.517262   -0.080127
   9 Au:    0.560508   -0.087297
  10 Au:    0.516906   -0.079490
  11 Au:    0.562335   -0.087142
  12 Au:    0.162362   -0.108304
  13 Au:    0.550648   -0.015751
  14 Cr:   -5.943041    2.708866
Sum of atomic charges         :   -0.0000000

LOEWDIN ATOMIC CHARGES AND SPIN POPULATIONS
-------------------------------------------
   0 Au:    0.099939    0.011058
   1 Au:    0.099468    0.010825
   2 Au:    0.074536   -0.075952
   3 Au:    0.033677   -0.075017
   4 Au:    0.145219   -0.130294
   5 Au:    0.144691   -0.130204
   6 Au:    0.074743   -0.075728
   7 Au:    0.123881   -0.082575
   8 Au:    0.115943   -0.098854
   9 Au:    0.144689   -0.130086
  10 Au:    0.115856   -0.098506
  11 Au:    0.145100   -0.130296
  12 Au:    0.033764   -0.074955
  13 Au:    0.123937   -0.082558
  14 Cr:   -1.475442    3.163143

  Mayer bond orders larger than 0.100000
B(  0-Au,  1-Au) :   0.1262 B(  0-Au,  3-Au) :   0.2531 B(  0-Au,  6-Au) :   0.2729
B(  0-Au, 12-Au) :   0.2512 B(  0-Au, 14-Cr) :   0.4270 B(  1-Au,  2-Au) :   0.2734
B(  1-Au,  3-Au) :   0.2500 B(  1-Au, 12-Au) :   0.2522 B(  1-Au, 14-Cr) :   0.4285
B(  2-Au,  4-Au) :   0.1717 B(  2-Au,  9-Au) :   0.1712 B(  2-Au, 13-Au) :   0.2276
B(  2-Au, 14-Cr) :   0.5967 B(  3-Au,  4-Au) :   0.2197 B(  3-Au,  5-Au) :   0.2189
B(  3-Au, 14-Cr) :   0.5503 B(  4-Au,  5-Au) :   0.1167 B(  4-Au,  8-Au) :   0.1669
B(  4-Au, 13-Au) :   0.1689 B(  4-Au, 14-Cr) :   0.6113 B(  5-Au,  6-Au) :   0.1715
B(  5-Au,  7-Au) :   0.1696 B(  5-Au,  8-Au) :   0.1684 B(  5-Au, 14-Cr) :   0.6079
B(  6-Au,  7-Au) :   0.2262 B(  6-Au, 11-Au) :   0.1712 B(  6-Au, 14-Cr) :   0.5962
B(  7-Au,  8-Au) :   0.1721 B(  7-Au, 10-Au) :   0.1758 B(  7-Au, 11-Au) :   0.1698
B(  7-Au, 14-Cr) :   0.4938 B(  8-Au, 10-Au) :   0.1910 B(  8-Au, 13-Au) :   0.1750
B(  8-Au, 14-Cr) :   0.5019 B(  9-Au, 10-Au) :   0.1682 B(  9-Au, 11-Au) :   0.1178
B(  9-Au, 12-Au) :   0.2193 B(  9-Au, 13-Au) :   0.1687 B(  9-Au, 14-Cr) :   0.6081
B( 10-Au, 11-Au) :   0.1662 B( 10-Au, 13-Au) :   0.1728 B( 10-Au, 14-Cr) :   0.5012
B( 11-Au, 12-Au) :   0.2190 B( 11-Au, 14-Cr) :   0.6107 B( 12-Au, 14-Cr) :   0.5509
B( 13-Au, 14-Cr) :   0.4931

FINAL SINGLE POINT ENERGY     -2946.323318281513

DIPOLE MOMENT
-------------
                                X             Y             Z
Electronic contribution:    -15.62609       4.43366      -0.16170
Nuclear contribution   :     15.61589      -4.42875       0.16087
                        -----------------------------------------
Total Dipole Moment    :     -0.01020       0.00491      -0.00083
                        -----------------------------------------
Magnitude (a.u.)       :      0.01135
Magnitude (Debye)      :      0.02885

Rotational constants in cm-1:     0.001273     0.000991     0.000941
Rotational constants in MHz :    38.154789    29.702152    28.218002

                             ****ORCA TERMINATED NORMALLY****
TOTAL RUN TIME: 0 days 0 hours 27 minutes 22 seconds 455 msec
