                         Program Version 5.0.3 -  RELEASE  -
|  1> !RI-B2PLYP def2-TZVP def2-TZVP/C
|  2> !RIJCOSX VERYSLOWCONV
|  3>
|  4> %scf
|  5>   AutoTRAHIter 200
|  6>   maxiter 400
|  7> end
|  8>
|  9>
| 10> %pal nprocs 6 end
| 11>
| 12> *xyzfile 0 6 pbe.xyz
| 13>
| 14> $new_job
| 15>
| 16> !RI-B2PLYP def2-TZVP def2-TZVP/C
| 17> !RIJCOSX VERYSLOWCONV
| 18>
| 19> %scf
| 20>   AutoTRAHIter 200
| 21>   maxiter 400
| 22> end
| 23>
| 24>
| 25> %pal nprocs 6 end
| 26>
| 27> *xyzfile 0 4 pbe.xyz
| 28>
| 29>
| 30>
| 31>
| 32>
| 33>                          ****END OF INPUT****
 Total Charge           Charge          ....    0
 Multiplicity           Mult            ....    6
 Number of Electrons    NEL             ....  215
MP2 TOTAL ENERGY:    -2506.680797002 Eh
FINAL SINGLE POINT ENERGY     -2506.680797002077

CARTESIAN COORDINATES (ANGSTROEM)
---------------------------------
  Au     7.352422    6.785369    5.845358
  Au     6.833873    3.336309    9.061775
  Au     8.343084    7.071823    8.399300
  Au     7.056298    5.538871   10.521193
  Au     7.403241    8.233172   10.707506
  Au     5.657641    8.307583    8.608735
  Au     8.416078    4.624271    7.110134
  Au     4.625557    7.271881    6.389222
  Au     5.389934    4.768558    5.513538
  Au     6.740559    2.558264    6.425990
  Mn     6.020719    5.664008    8.017791

 Multiplicity           Mult            ....    4
 Number of Electrons    NEL             ....  215
 Basis Dimension        Dim             ....  445

ORBITAL ENERGIES
----------------
                 SPIN UP ORBITALS
  NO   OCC          E(Eh)            E(eV)
   0   1.0000    -237.629421     -6466.2253
   1   1.0000     -28.132053      -765.5121
   2   1.0000     -24.050368      -654.4438
   3   1.0000     -24.050239      -654.4403
   4   1.0000     -24.048551      -654.3944
   5   1.0000      -4.402000      -119.7845
   6   1.0000      -4.401470      -119.7701
   7   1.0000      -4.399216      -119.7088
   8   1.0000      -4.397646      -119.6660
   9   1.0000      -4.397457      -119.6609
  10   1.0000      -4.396534      -119.6358
  11   1.0000      -4.395872      -119.6178
  12   1.0000      -4.394541      -119.5815
  13   1.0000      -4.387636      -119.3937
  14   1.0000      -4.386441      -119.3611
  15   1.0000      -3.609486       -98.2191
  16   1.0000      -2.524818       -68.7038
  17   1.0000      -2.523558       -68.6695
  18   1.0000      -2.521806       -68.6218
  19   1.0000      -2.521440       -68.6119
  20   1.0000      -2.520478       -68.5857
  21   1.0000      -2.519904       -68.5701
  22   1.0000      -2.517715       -68.5105
  23   1.0000      -2.517152       -68.4952
  24   1.0000      -2.517004       -68.4912
  25   1.0000      -2.516511       -68.4777
  26   1.0000      -2.516198       -68.4692
  27   1.0000      -2.515395       -68.4474
  28   1.0000      -2.514719       -68.4290
  29   1.0000      -2.514381       -68.4198
  30   1.0000      -2.514206       -68.4150
  31   1.0000      -2.512902       -68.3795
  32   1.0000      -2.512032       -68.3559
  33   1.0000      -2.511764       -68.3486
  34   1.0000      -2.511306       -68.3361
  35   1.0000      -2.510801       -68.3224
  36   1.0000      -2.510048       -68.3019
  37   1.0000      -2.509461       -68.2859
  38   1.0000      -2.508952       -68.2721
  39   1.0000      -2.508315       -68.2547
  40   1.0000      -2.505639       -68.1819
  41   1.0000      -2.504999       -68.1645
  42   1.0000      -2.504042       -68.1384
  43   1.0000      -2.502340       -68.0921
  44   1.0000      -2.502062       -68.0846
  45   1.0000      -2.501033       -68.0566
  46   1.0000      -2.411811       -65.6287
  47   1.0000      -2.411272       -65.6140
  48   1.0000      -2.409038       -65.5532
  49   1.0000      -0.518233       -14.1018
  50   1.0000      -0.513790       -13.9809
  51   1.0000      -0.512892       -13.9565
  52   1.0000      -0.507629       -13.8133
  53   1.0000      -0.506935       -13.7944
  54   1.0000      -0.492860       -13.4114
  55   1.0000      -0.466785       -12.7019
  56   1.0000      -0.458270       -12.4702
  57   1.0000      -0.455543       -12.3960
  58   1.0000      -0.452897       -12.3240
  59   1.0000      -0.450049       -12.2464
  60   1.0000      -0.446899       -12.1607
  61   1.0000      -0.444447       -12.0940
  62   1.0000      -0.440096       -11.9756
  63   1.0000      -0.434689       -11.8285
  64   1.0000      -0.432705       -11.7745
  65   1.0000      -0.429396       -11.6845
  66   1.0000      -0.427737       -11.6393
  67   1.0000      -0.425930       -11.5902
  68   1.0000      -0.423953       -11.5364
  69   1.0000      -0.420990       -11.4557
  70   1.0000      -0.418379       -11.3847
  71   1.0000      -0.414540       -11.2802
  72   1.0000      -0.410895       -11.1810
  73   1.0000      -0.406030       -11.0486
  74   1.0000      -0.401423       -10.9233
  75   1.0000      -0.397890       -10.8271
  76   1.0000      -0.397172       -10.8076
  77   1.0000      -0.395170       -10.7531
  78   1.0000      -0.390600       -10.6288
  79   1.0000      -0.386544       -10.5184
  80   1.0000      -0.381794       -10.3891
  81   1.0000      -0.379356       -10.3228
  82   1.0000      -0.377390       -10.2693
  83   1.0000      -0.375660       -10.2222
  84   1.0000      -0.375169       -10.2089
  85   1.0000      -0.372768       -10.1435
  86   1.0000      -0.369075       -10.0430
  87   1.0000      -0.367613       -10.0033
  88   1.0000      -0.367000        -9.9866
  89   1.0000      -0.365586        -9.9481
  90   1.0000      -0.363982        -9.9045
  91   1.0000      -0.362770        -9.8715
  92   1.0000      -0.359689        -9.7876
  93   1.0000      -0.357195        -9.7198
  94   1.0000      -0.354322        -9.6416
  95   1.0000      -0.352065        -9.5802
  96   1.0000      -0.351512        -9.5651
  97   1.0000      -0.348830        -9.4921
  98   1.0000      -0.347952        -9.4683
  99   1.0000      -0.345285        -9.3957
 100   1.0000      -0.343008        -9.3337
 101   1.0000      -0.337339        -9.1795
 102   1.0000      -0.331533        -9.0215
 103   1.0000      -0.327968        -8.9245
 104   1.0000      -0.315179        -8.5765
 105   1.0000      -0.310923        -8.4606
 106   1.0000      -0.292355        -7.9554
 107   1.0000      -0.247948        -6.7470
 108   1.0000      -0.231341        -6.2951
 109   0.0000      -0.125914        -3.4263
 110   0.0000      -0.079338        -2.1589
 111   0.0000      -0.072721        -1.9788
 112   0.0000      -0.066760        -1.8166
 113   0.0000      -0.061411        -1.6711

                 SPIN DOWN ORBITALS
  NO   OCC          E(Eh)            E(eV)
   0   1.0000    -237.627257     -6466.1664
   1   1.0000     -28.030970      -762.7615
   2   1.0000     -23.957236      -651.9095
   3   1.0000     -23.957047      -651.9044
   4   1.0000     -23.956504      -651.8896
   5   1.0000      -4.401617      -119.7741
   6   1.0000      -4.401467      -119.7700
   7   1.0000      -4.400128      -119.7336
   8   1.0000      -4.398009      -119.6759
   9   1.0000      -4.397203      -119.6540
  10   1.0000      -4.396405      -119.6323
  11   1.0000      -4.396018      -119.6217
  12   1.0000      -4.395736      -119.6141
  13   1.0000      -4.388715      -119.4230
  14   1.0000      -4.388281      -119.4112
  15   1.0000      -3.325102       -90.4806
  16   1.0000      -2.524424       -68.6931
  17   1.0000      -2.522707       -68.6464
  18   1.0000      -2.520619       -68.5895
  19   1.0000      -2.520376       -68.5829
  20   1.0000      -2.519946       -68.5712
  21   1.0000      -2.518445       -68.5304
  22   1.0000      -2.517622       -68.5080
  23   1.0000      -2.517033       -68.4919
  24   1.0000      -2.515950       -68.4625
  25   1.0000      -2.515637       -68.4540
  26   1.0000      -2.515150       -68.4407
  27   1.0000      -2.514874       -68.4332
  28   1.0000      -2.514804       -68.4313
  29   1.0000      -2.514083       -68.4117
  30   1.0000      -2.513911       -68.4070
  31   1.0000      -2.512878       -68.3789
  32   1.0000      -2.512355       -68.3647
  33   1.0000      -2.512190       -68.3602
  34   1.0000      -2.511655       -68.3456
  35   1.0000      -2.511326       -68.3367
  36   1.0000      -2.510497       -68.3141
  37   1.0000      -2.509638       -68.2907
  38   1.0000      -2.509399       -68.2842
  39   1.0000      -2.508160       -68.2505
  40   1.0000      -2.506147       -68.1957
  41   1.0000      -2.505537       -68.1791
  42   1.0000      -2.505494       -68.1780
  43   1.0000      -2.503974       -68.1366
  44   1.0000      -2.502698       -68.1019
  45   1.0000      -2.502375       -68.0931
  46   1.0000      -2.085929       -56.7610
  47   1.0000      -2.085564       -56.7511
  48   1.0000      -2.084524       -56.7228
  49   1.0000      -0.490967       -13.3599
  50   1.0000      -0.471440       -12.8285
  51   1.0000      -0.467910       -12.7325
  52   1.0000      -0.463457       -12.6113
  53   1.0000      -0.460901       -12.5417
  54   1.0000      -0.458601       -12.4792
  55   1.0000      -0.456788       -12.4298
  56   1.0000      -0.454301       -12.3621
  57   1.0000      -0.447134       -12.1671
  58   1.0000      -0.444950       -12.1077
  59   1.0000      -0.439888       -11.9699
  60   1.0000      -0.438285       -11.9263
  61   1.0000      -0.434037       -11.8108
  62   1.0000      -0.431143       -11.7320
  63   1.0000      -0.430650       -11.7186
  64   1.0000      -0.427516       -11.6333
  65   1.0000      -0.423528       -11.5248
  66   1.0000      -0.420522       -11.4430
  67   1.0000      -0.415230       -11.2990
  68   1.0000      -0.411295       -11.1919
  69   1.0000      -0.408280       -11.1099
  70   1.0000      -0.403483       -10.9793
  71   1.0000      -0.400819       -10.9068
  72   1.0000      -0.399198       -10.8627
  73   1.0000      -0.393705       -10.7133
  74   1.0000      -0.389670       -10.6035
  75   1.0000      -0.388305       -10.5663
  76   1.0000      -0.385450       -10.4886
  77   1.0000      -0.382083       -10.3970
  78   1.0000      -0.381848       -10.3906
  79   1.0000      -0.379888       -10.3373
  80   1.0000      -0.375547       -10.2192
  81   1.0000      -0.374804       -10.1989
  82   1.0000      -0.370208       -10.0739
  83   1.0000      -0.369216       -10.0469
  84   1.0000      -0.368497       -10.0273
  85   1.0000      -0.367025        -9.9873
  86   1.0000      -0.365320        -9.9409
  87   1.0000      -0.364234        -9.9113
  88   1.0000      -0.362217        -9.8564
  89   1.0000      -0.357521        -9.7286
  90   1.0000      -0.356556        -9.7024
  91   1.0000      -0.354805        -9.6547
  92   1.0000      -0.351926        -9.5764
  93   1.0000      -0.350180        -9.5289
  94   1.0000      -0.349190        -9.5019
  95   1.0000      -0.345837        -9.4107
  96   1.0000      -0.339748        -9.2450
  97   1.0000      -0.338977        -9.2240
  98   1.0000      -0.331001        -9.0070
  99   1.0000      -0.323192        -8.7945
 100   1.0000      -0.315280        -8.5792
 101   1.0000      -0.312173        -8.4947
 102   1.0000      -0.266643        -7.2557
 103   1.0000      -0.239307        -6.5119
 104   1.0000      -0.228826        -6.2267
 105   1.0000      -0.168586        -4.5875
 106   0.0000      -0.086669        -2.3584
 107   0.0000      -0.083943        -2.2842
 108   0.0000      -0.064343        -1.7508
 109   0.0000      -0.046839        -1.2746
 110   0.0000      -0.032802        -0.8926

MULLIKEN ATOMIC CHARGES AND SPIN POPULATIONS
--------------------------------------------
   0 Au:    0.012404   -0.410293
   1 Au:    0.073790   -0.172768
   2 Au:   -0.035360   -0.011972
   3 Au:    0.023711   -0.178418
   4 Au:    0.283245   -0.029442
   5 Au:    0.014054   -0.287533
   6 Au:    0.007173   -0.138304
   7 Au:    0.168827   -0.186594
   8 Au:    0.067004   -0.265427
   9 Au:    0.204464   -0.038489
  10 Mn:   -0.819313    4.719240
Sum of atomic charges         :   -0.0000000

LOEWDIN ATOMIC CHARGES AND SPIN POPULATIONS
-------------------------------------------
   0 Au:   -0.048718   -0.277294
   1 Au:   -0.000696   -0.139096
   2 Au:   -0.062769   -0.067954
   3 Au:   -0.007384   -0.113849
   4 Au:    0.107493   -0.077727
   5 Au:   -0.002929   -0.169241
   6 Au:   -0.051098   -0.114088
   7 Au:    0.043904   -0.294945
   8 Au:   -0.000581   -0.189040
   9 Au:    0.069387   -0.077834
  10 Mn:   -0.046610    4.521068

  Mayer bond orders larger than 0.100000
B(  0-Au,  2-Au) :   0.2512 B(  0-Au,  6-Au) :   0.1823 B(  0-Au,  7-Au) :   0.1229
B(  0-Au,  8-Au) :   0.1318 B(  0-Au, 10-Mn) :   0.3931 B(  1-Au,  3-Au) :   0.4919
B(  1-Au,  6-Au) :   0.1507 B(  1-Au,  9-Au) :   0.2602 B(  1-Au, 10-Mn) :   0.5626
B(  2-Au,  3-Au) :   0.1897 B(  2-Au,  4-Au) :   0.3230 B(  2-Au,  5-Au) :   0.1616
B(  2-Au,  6-Au) :   0.4625 B(  2-Au, 10-Mn) :   0.3459 B(  3-Au,  4-Au) :   0.2728
B(  3-Au, 10-Mn) :   0.5341 B(  4-Au,  5-Au) :   0.3912 B(  5-Au,  7-Au) :   0.3618
B(  5-Au, 10-Mn) :   0.4383 B(  6-Au,  9-Au) :   0.2863 B(  6-Au, 10-Mn) :   0.3825
B(  7-Au,  8-Au) :   0.2344 B(  7-Au, 10-Mn) :   0.6216 B(  8-Au,  9-Au) :   0.3792
B(  8-Au, 10-Mn) :   0.4337 B(  9-Au, 10-Mn) :   0.1343

MP2 TOTAL ENERGY:    -2506.642121048 Eh
FINAL SINGLE POINT ENERGY     -2506.642121048306

DIPOLE MOMENT
-------------
                                X             Y             Z
Electronic contribution:     27.55410       6.78697      -5.52502
Nuclear contribution   :    -27.56728      -6.72213       5.77733
                        -----------------------------------------
Total Dipole Moment    :     -0.01319       0.06484       0.25231
                        -----------------------------------------
Magnitude (a.u.)       :      0.26084
Magnitude (Debye)      :      0.66300

Rotational constants in cm-1:     0.002264     0.001572     0.001200
Rotational constants in MHz :    67.866112    47.141230    35.965628

                             ****ORCA TERMINATED NORMALLY****
TOTAL RUN TIME: 0 days 0 hours 23 minutes 20 seconds 146 msec
