                         Program Version 5.0.3 -  RELEASE  -
|  1> !PBE def2-TZVP VERYSLOWCONV
|  2> !KDIIS
|  3>
|  4> %scf
|  5>   AutoTRAHIter 200
|  6>   maxiter 400
|  7> end
|  8>
|  9>
| 10> %pal nprocs 6 end
| 11>
| 12> *xyzfile 0 6 pbe.xyz
| 13>
| 14> $new_job
| 15>
| 16> !PBE def2-TZVP VERYSLOWCONV
| 17> !KDIIS
| 18>
| 19> %scf
| 20>   AutoTRAHIter 200
| 21>   maxiter 400
| 22> end
| 23>
| 24>
| 25> %pal nprocs 6 end
| 26>
| 27> *xyzfile 0 4 pbe.xyz
| 28>
| 29>
| 30>
| 31>
| 32>
| 33>                          ****END OF INPUT****
 Total Charge           Charge          ....    0
 Multiplicity           Mult            ....    6
 Number of Electrons    NEL             ....  215
FINAL SINGLE POINT ENERGY     -2509.039390415380

CARTESIAN COORDINATES (ANGSTROEM)
---------------------------------
  Au     7.352422    6.785369    5.845358
  Au     6.833873    3.336309    9.061775
  Au     8.343084    7.071823    8.399300
  Au     7.056298    5.538871   10.521193
  Au     7.403241    8.233172   10.707506
  Au     5.657641    8.307583    8.608735
  Au     8.416078    4.624271    7.110134
  Au     4.625557    7.271881    6.389222
  Au     5.389934    4.768558    5.513538
  Au     6.740559    2.558264    6.425990
  Mn     6.020719    5.664008    8.017791

 Multiplicity           Mult            ....    4
 Number of Electrons    NEL             ....  215
 Basis Dimension        Dim             ....  445

ORBITAL ENERGIES
----------------
                 SPIN UP ORBITALS
  NO   OCC          E(Eh)            E(eV)
   0   1.0000    -234.195015     -6372.7704
   1   1.0000     -26.887124      -731.6358
   2   1.0000     -23.040256      -626.9572
   3   1.0000     -23.034603      -626.8034
   4   1.0000     -23.033190      -626.7650
   5   1.0000      -4.029161      -109.6390
   6   1.0000      -4.024716      -109.5181
   7   1.0000      -4.024377      -109.5089
   8   1.0000      -4.023911      -109.4962
   9   1.0000      -4.023309      -109.4798
  10   1.0000      -4.022791      -109.4657
  11   1.0000      -4.022690      -109.4629
  12   1.0000      -4.022459      -109.4567
  13   1.0000      -4.019466      -109.3752
  14   1.0000      -4.015816      -109.2759
  15   1.0000      -3.094811       -84.2141
  16   1.0000      -2.246923       -61.1419
  17   1.0000      -2.244395       -61.0731
  18   1.0000      -2.243121       -61.0384
  19   1.0000      -2.242652       -61.0257
  20   1.0000      -2.241131       -60.9843
  21   1.0000      -2.240549       -60.9684
  22   1.0000      -2.239393       -60.9370
  23   1.0000      -2.238938       -60.9246
  24   1.0000      -2.238497       -60.9126
  25   1.0000      -2.238174       -60.9038
  26   1.0000      -2.237969       -60.8982
  27   1.0000      -2.237878       -60.8958
  28   1.0000      -2.237592       -60.8880
  29   1.0000      -2.236961       -60.8708
  30   1.0000      -2.236432       -60.8564
  31   1.0000      -2.236066       -60.8464
  32   1.0000      -2.234665       -60.8083
  33   1.0000      -2.234228       -60.7964
  34   1.0000      -2.233366       -60.7730
  35   1.0000      -2.232935       -60.7612
  36   1.0000      -2.232479       -60.7488
  37   1.0000      -2.231853       -60.7318
  38   1.0000      -2.231171       -60.7132
  39   1.0000      -2.230571       -60.6969
  40   1.0000      -2.230051       -60.6828
  41   1.0000      -2.229771       -60.6751
  42   1.0000      -2.229532       -60.6687
  43   1.0000      -2.229318       -60.6628
  44   1.0000      -2.229229       -60.6604
  45   1.0000      -2.225654       -60.5631
  46   1.0000      -2.005980       -54.5855
  47   1.0000      -1.995177       -54.2915
  48   1.0000      -1.991754       -54.1984
  49   1.0000      -0.413342       -11.2476
  50   1.0000      -0.377439       -10.2706
  51   1.0000      -0.373705       -10.1690
  52   1.0000      -0.369573       -10.0566
  53   1.0000      -0.363781        -9.8990
  54   1.0000      -0.362594        -9.8667
  55   1.0000      -0.357272        -9.7219
  56   1.0000      -0.352668        -9.5966
  57   1.0000      -0.346234        -9.4215
  58   1.0000      -0.340175        -9.2566
  59   1.0000      -0.337796        -9.1919
  60   1.0000      -0.335085        -9.1181
  61   1.0000      -0.329406        -8.9636
  62   1.0000      -0.327805        -8.9200
  63   1.0000      -0.326723        -8.8906
  64   1.0000      -0.324753        -8.8370
  65   1.0000      -0.319670        -8.6987
  66   1.0000      -0.318339        -8.6625
  67   1.0000      -0.315252        -8.5784
  68   1.0000      -0.313899        -8.5416
  69   1.0000      -0.309338        -8.4175
  70   1.0000      -0.302946        -8.2436
  71   1.0000      -0.301314        -8.1992
  72   1.0000      -0.299540        -8.1509
  73   1.0000      -0.298751        -8.1294
  74   1.0000      -0.292999        -7.9729
  75   1.0000      -0.292153        -7.9499
  76   1.0000      -0.291128        -7.9220
  77   1.0000      -0.285811        -7.7773
  78   1.0000      -0.285238        -7.7617
  79   1.0000      -0.282681        -7.6921
  80   1.0000      -0.281193        -7.6517
  81   1.0000      -0.277331        -7.5466
  82   1.0000      -0.276478        -7.5234
  83   1.0000      -0.272580        -7.4173
  84   1.0000      -0.270516        -7.3611
  85   1.0000      -0.269810        -7.3419
  86   1.0000      -0.268360        -7.3024
  87   1.0000      -0.267620        -7.2823
  88   1.0000      -0.266867        -7.2618
  89   1.0000      -0.262465        -7.1420
  90   1.0000      -0.258456        -7.0329
  91   1.0000      -0.257457        -7.0058
  92   1.0000      -0.257153        -6.9975
  93   1.0000      -0.255455        -6.9513
  94   1.0000      -0.252927        -6.8825
  95   1.0000      -0.250018        -6.8033
  96   1.0000      -0.249719        -6.7952
  97   1.0000      -0.247872        -6.7449
  98   1.0000      -0.247169        -6.7258
  99   1.0000      -0.245566        -6.6822
 100   1.0000      -0.244553        -6.6546
 101   1.0000      -0.240559        -6.5459
 102   1.0000      -0.238639        -6.4937
 103   1.0000      -0.236313        -6.4304
 104   1.0000      -0.234004        -6.3676
 105   1.0000      -0.231232        -6.2921
 106   1.0000      -0.226099        -6.1525
 107   1.0000      -0.215568        -5.8659
 108   1.0000      -0.207283        -5.6405
 109   0.0000      -0.187331        -5.0975
 110   0.0000      -0.142862        -3.8875
 111   0.0000      -0.139632        -3.7996
 112   0.0000      -0.138596        -3.7714
 113   0.0000      -0.126269        -3.4359

                 SPIN DOWN ORBITALS
  NO   OCC          E(Eh)            E(eV)
   0   1.0000    -234.194293     -6372.7507
   1   1.0000     -26.823855      -729.9142
   2   1.0000     -22.990832      -625.6123
   3   1.0000     -22.987316      -625.5167
   4   1.0000     -22.985734      -625.4736
   5   1.0000      -4.028784      -109.6288
   6   1.0000      -4.025111      -109.5288
   7   1.0000      -4.024094      -109.5012
   8   1.0000      -4.023790      -109.4929
   9   1.0000      -4.023198      -109.4768
  10   1.0000      -4.022815      -109.4664
  11   1.0000      -4.022558      -109.4594
  12   1.0000      -4.022357      -109.4539
  13   1.0000      -4.019992      -109.3895
  14   1.0000      -4.016447      -109.2931
  15   1.0000      -2.939143       -79.9782
  16   1.0000      -2.246601       -61.1331
  17   1.0000      -2.244265       -61.0696
  18   1.0000      -2.242672       -61.0262
  19   1.0000      -2.241724       -61.0004
  20   1.0000      -2.241159       -60.9850
  21   1.0000      -2.240844       -60.9765
  22   1.0000      -2.239550       -60.9413
  23   1.0000      -2.238558       -60.9143
  24   1.0000      -2.238252       -60.9059
  25   1.0000      -2.237691       -60.8907
  26   1.0000      -2.237580       -60.8877
  27   1.0000      -2.237532       -60.8863
  28   1.0000      -2.237045       -60.8731
  29   1.0000      -2.236527       -60.8590
  30   1.0000      -2.236368       -60.8547
  31   1.0000      -2.235784       -60.8388
  32   1.0000      -2.234959       -60.8163
  33   1.0000      -2.234776       -60.8113
  34   1.0000      -2.233887       -60.7872
  35   1.0000      -2.233359       -60.7728
  36   1.0000      -2.232844       -60.7588
  37   1.0000      -2.232298       -60.7439
  38   1.0000      -2.231079       -60.7107
  39   1.0000      -2.230930       -60.7067
  40   1.0000      -2.230419       -60.6928
  41   1.0000      -2.230225       -60.6875
  42   1.0000      -2.229991       -60.6811
  43   1.0000      -2.229891       -60.6784
  44   1.0000      -2.229263       -60.6613
  45   1.0000      -2.226188       -60.5777
  46   1.0000      -1.848443       -50.2987
  47   1.0000      -1.844987       -50.2047
  48   1.0000      -1.840866       -50.0925
  49   1.0000      -0.408841       -11.1251
  50   1.0000      -0.375612       -10.2209
  51   1.0000      -0.371818       -10.1177
  52   1.0000      -0.368283       -10.0215
  53   1.0000      -0.361672        -9.8416
  54   1.0000      -0.360100        -9.7988
  55   1.0000      -0.354656        -9.6507
  56   1.0000      -0.349992        -9.5238
  57   1.0000      -0.343759        -9.3541
  58   1.0000      -0.339657        -9.2425
  59   1.0000      -0.335348        -9.1253
  60   1.0000      -0.334417        -9.0999
  61   1.0000      -0.330509        -8.9936
  62   1.0000      -0.326556        -8.8860
  63   1.0000      -0.326268        -8.8782
  64   1.0000      -0.323276        -8.7968
  65   1.0000      -0.319372        -8.6906
  66   1.0000      -0.318308        -8.6616
  67   1.0000      -0.313608        -8.5337
  68   1.0000      -0.311492        -8.4761
  69   1.0000      -0.307572        -8.3695
  70   1.0000      -0.301744        -8.2109
  71   1.0000      -0.300708        -8.1827
  72   1.0000      -0.297087        -8.0842
  73   1.0000      -0.292315        -7.9543
  74   1.0000      -0.291083        -7.9208
  75   1.0000      -0.289212        -7.8698
  76   1.0000      -0.285628        -7.7723
  77   1.0000      -0.283983        -7.7276
  78   1.0000      -0.282360        -7.6834
  79   1.0000      -0.281278        -7.6540
  80   1.0000      -0.281088        -7.6488
  81   1.0000      -0.277328        -7.5465
  82   1.0000      -0.275078        -7.4853
  83   1.0000      -0.273061        -7.4304
  84   1.0000      -0.270518        -7.3612
  85   1.0000      -0.269505        -7.3336
  86   1.0000      -0.268733        -7.3126
  87   1.0000      -0.267713        -7.2848
  88   1.0000      -0.266260        -7.2453
  89   1.0000      -0.262727        -7.1492
  90   1.0000      -0.259003        -7.0478
  91   1.0000      -0.258395        -7.0313
  92   1.0000      -0.257901        -7.0178
  93   1.0000      -0.255712        -6.9583
  94   1.0000      -0.253093        -6.8870
  95   1.0000      -0.250236        -6.8093
  96   1.0000      -0.249993        -6.8026
  97   1.0000      -0.248176        -6.7532
  98   1.0000      -0.245778        -6.6880
  99   1.0000      -0.243301        -6.6206
 100   1.0000      -0.240248        -6.5375
 101   1.0000      -0.230227        -6.2648
 102   1.0000      -0.224950        -6.1212
 103   1.0000      -0.215236        -5.8569
 104   1.0000      -0.204603        -5.5675
 105   1.0000      -0.159296        -4.3347
 106   0.0000      -0.152105        -4.1390
 107   0.0000      -0.146797        -3.9945
 108   0.0000      -0.127811        -3.4779
 109   0.0000      -0.123720        -3.3666
 110   0.0000      -0.123218        -3.3529

MULLIKEN ATOMIC CHARGES AND SPIN POPULATIONS
--------------------------------------------
   0 Au:    0.086603   -0.222884
   1 Au:    0.096915   -0.091386
   2 Au:   -0.008367   -0.006468
   3 Au:    0.028814   -0.109187
   4 Au:    0.328178   -0.016750
   5 Au:    0.033285   -0.184878
   6 Au:    0.010366   -0.115368
   7 Au:    0.205025   -0.143530
   8 Au:    0.074304   -0.184466
   9 Au:    0.251152   -0.044122
  10 Mn:   -1.106274    4.119041
Sum of atomic charges         :   -0.0000000

LOEWDIN ATOMIC CHARGES AND SPIN POPULATIONS
-------------------------------------------
   0 Au:    0.010780   -0.162818
   1 Au:    0.036964   -0.082926
   2 Au:   -0.031984   -0.030160
   3 Au:    0.027136   -0.060588
   4 Au:    0.089122   -0.060764
   5 Au:    0.022588   -0.092975
   6 Au:   -0.023634   -0.082138
   7 Au:    0.074688   -0.200532
   8 Au:    0.026736   -0.114096
   9 Au:    0.058573   -0.073748
  10 Mn:   -0.290968    3.960744

  Mayer bond orders larger than 0.100000
B(  0-Au,  2-Au) :   0.3162 B(  0-Au,  6-Au) :   0.2444 B(  0-Au,  7-Au) :   0.1516
B(  0-Au,  8-Au) :   0.1941 B(  0-Au, 10-Mn) :   0.5186 B(  1-Au,  3-Au) :   0.4923
B(  1-Au,  6-Au) :   0.1931 B(  1-Au,  9-Au) :   0.3019 B(  1-Au, 10-Mn) :   0.6291
B(  2-Au,  3-Au) :   0.2136 B(  2-Au,  4-Au) :   0.3480 B(  2-Au,  5-Au) :   0.1874
B(  2-Au,  6-Au) :   0.4185 B(  2-Au, 10-Mn) :   0.3845 B(  3-Au,  4-Au) :   0.3196
B(  3-Au, 10-Mn) :   0.5937 B(  4-Au,  5-Au) :   0.4109 B(  4-Au,  9-Au) :   0.1037
B(  5-Au,  7-Au) :   0.4031 B(  5-Au, 10-Mn) :   0.5350 B(  6-Au,  9-Au) :   0.3153
B(  6-Au, 10-Mn) :   0.4732 B(  7-Au,  8-Au) :   0.2547 B(  7-Au, 10-Mn) :   0.6501
B(  8-Au,  9-Au) :   0.4070 B(  8-Au, 10-Mn) :   0.5176 B(  9-Au, 10-Mn) :   0.1421

FINAL SINGLE POINT ENERGY     -2509.011650620469

DIPOLE MOMENT
-------------
                                X             Y             Z
Electronic contribution:     27.60394       6.82196      -5.69244
Nuclear contribution   :    -27.56728      -6.72213       5.77733
                        -----------------------------------------
Total Dipole Moment    :      0.03665       0.09983       0.08489
                        -----------------------------------------
Magnitude (a.u.)       :      0.13607
Magnitude (Debye)      :      0.34586

Rotational constants in cm-1:     0.002264     0.001572     0.001200
Rotational constants in MHz :    67.866112    47.141230    35.965628

                             ****ORCA TERMINATED NORMALLY****
TOTAL RUN TIME: 0 days 0 hours 2 minutes 56 seconds 767 msec
