                         Program Version 5.0.3 -  RELEASE  -
|  1> !R2SCAN def2-TZVP VERYSLOWCONV
|  2> !KDIIS
|  3> %scf
|  4>   AutoTRAHIter 200
|  5>   maxiter 400
|  6> end
|  7>
|  8> %pal nprocs 6 end
|  9>
| 10> *xyzfile 0 6 pbe.xyz
| 11>
| 12> $new_job
| 13>
| 14> !R2SCAN def2-TZVP VERYSLOWCONV
| 15> !KDIIS
| 16> %scf
| 17>   AutoTRAHIter 200
| 18>   maxiter 400
| 19> end
| 20>
| 21>
| 22> %pal nprocs 6 end
| 23>
| 24> *xyzfile 0 4 pbe.xyz
| 25>
| 26>
| 27>
| 28>
| 29>
| 30>                          ****END OF INPUT****
 Total Charge           Charge          ....    0
 Multiplicity           Mult            ....    6
 Number of Electrons    NEL             ....  215
FINAL SINGLE POINT ENERGY     -2509.450190307949

CARTESIAN COORDINATES (ANGSTROEM)
---------------------------------
  Au     7.352422    6.785369    5.845358
  Au     6.833873    3.336309    9.061775
  Au     8.343084    7.071823    8.399300
  Au     7.056298    5.538871   10.521193
  Au     7.403241    8.233172   10.707506
  Au     5.657641    8.307583    8.608735
  Au     8.416078    4.624271    7.110134
  Au     4.625557    7.271881    6.389222
  Au     5.389934    4.768558    5.513538
  Au     6.740559    2.558264    6.425990
  Mn     6.020719    5.664008    8.017791

 Multiplicity           Mult            ....    4
 Number of Electrons    NEL             ....  215
 Basis Dimension        Dim             ....  445

ORBITAL ENERGIES
----------------
                 SPIN UP ORBITALS
  NO   OCC          E(Eh)            E(eV)
   0   1.0000    -235.040979     -6395.7902
   1   1.0000     -27.218075      -740.6415
   2   1.0000     -23.267529      -633.1416
   3   1.0000     -23.264872      -633.0694
   4   1.0000     -23.262701      -633.0103
   5   1.0000      -4.120165      -112.1154
   6   1.0000      -4.117092      -112.0318
   7   1.0000      -4.116505      -112.0158
   8   1.0000      -4.114811      -111.9697
   9   1.0000      -4.114631      -111.9648
  10   1.0000      -4.114530      -111.9621
  11   1.0000      -4.114403      -111.9586
  12   1.0000      -4.114311      -111.9561
  13   1.0000      -4.109015      -111.8120
  14   1.0000      -4.107733      -111.7771
  15   1.0000      -3.239170       -88.1423
  16   1.0000      -2.310671       -62.8765
  17   1.0000      -2.309424       -62.8426
  18   1.0000      -2.307685       -62.7953
  19   1.0000      -2.306783       -62.7707
  20   1.0000      -2.305995       -62.7493
  21   1.0000      -2.304200       -62.7005
  22   1.0000      -2.304049       -62.6964
  23   1.0000      -2.303891       -62.6921
  24   1.0000      -2.302837       -62.6634
  25   1.0000      -2.302486       -62.6538
  26   1.0000      -2.302396       -62.6514
  27   1.0000      -2.302139       -62.6444
  28   1.0000      -2.301642       -62.6309
  29   1.0000      -2.301484       -62.6266
  30   1.0000      -2.300665       -62.6043
  31   1.0000      -2.300233       -62.5925
  32   1.0000      -2.298592       -62.5479
  33   1.0000      -2.297882       -62.5286
  34   1.0000      -2.297676       -62.5229
  35   1.0000      -2.297149       -62.5086
  36   1.0000      -2.296462       -62.4899
  37   1.0000      -2.295982       -62.4769
  38   1.0000      -2.295948       -62.4759
  39   1.0000      -2.294617       -62.4397
  40   1.0000      -2.294135       -62.4266
  41   1.0000      -2.293896       -62.4201
  42   1.0000      -2.293744       -62.4160
  43   1.0000      -2.293645       -62.4133
  44   1.0000      -2.291958       -62.3673
  45   1.0000      -2.290313       -62.3226
  46   1.0000      -2.100928       -57.1692
  47   1.0000      -2.095586       -57.0238
  48   1.0000      -2.091038       -56.9000
  49   1.0000      -0.419847       -11.4246
  50   1.0000      -0.386439       -10.5155
  51   1.0000      -0.383135       -10.4256
  52   1.0000      -0.377791       -10.2802
  53   1.0000      -0.374400       -10.1879
  54   1.0000      -0.373833       -10.1725
  55   1.0000      -0.368093       -10.0163
  56   1.0000      -0.364219        -9.9109
  57   1.0000      -0.357279        -9.7221
  58   1.0000      -0.350108        -9.5269
  59   1.0000      -0.349453        -9.5091
  60   1.0000      -0.345292        -9.3959
  61   1.0000      -0.339024        -9.2253
  62   1.0000      -0.338396        -9.2082
  63   1.0000      -0.337112        -9.1733
  64   1.0000      -0.334815        -9.1108
  65   1.0000      -0.329847        -8.9756
  66   1.0000      -0.328299        -8.9335
  67   1.0000      -0.326777        -8.8921
  68   1.0000      -0.324132        -8.8201
  69   1.0000      -0.319866        -8.7040
  70   1.0000      -0.315748        -8.5919
  71   1.0000      -0.311620        -8.4796
  72   1.0000      -0.311451        -8.4750
  73   1.0000      -0.308989        -8.4080
  74   1.0000      -0.304350        -8.2818
  75   1.0000      -0.303203        -8.2506
  76   1.0000      -0.302146        -8.2218
  77   1.0000      -0.296045        -8.0558
  78   1.0000      -0.295526        -8.0417
  79   1.0000      -0.293693        -7.9918
  80   1.0000      -0.289341        -7.8734
  81   1.0000      -0.286623        -7.7994
  82   1.0000      -0.286163        -7.7869
  83   1.0000      -0.282054        -7.6751
  84   1.0000      -0.280504        -7.6329
  85   1.0000      -0.279314        -7.6005
  86   1.0000      -0.278709        -7.5840
  87   1.0000      -0.277447        -7.5497
  88   1.0000      -0.275607        -7.4996
  89   1.0000      -0.271887        -7.3984
  90   1.0000      -0.268303        -7.3009
  91   1.0000      -0.266528        -7.2526
  92   1.0000      -0.266106        -7.2411
  93   1.0000      -0.265896        -7.2354
  94   1.0000      -0.264608        -7.2004
  95   1.0000      -0.262703        -7.1485
  96   1.0000      -0.260162        -7.0794
  97   1.0000      -0.258601        -7.0369
  98   1.0000      -0.256586        -6.9821
  99   1.0000      -0.255408        -6.9500
 100   1.0000      -0.254452        -6.9240
 101   1.0000      -0.253616        -6.9013
 102   1.0000      -0.252007        -6.8575
 103   1.0000      -0.248143        -6.7523
 104   1.0000      -0.244041        -6.6407
 105   1.0000      -0.241323        -6.5667
 106   1.0000      -0.233519        -6.3544
 107   1.0000      -0.219364        -5.9692
 108   1.0000      -0.210864        -5.7379
 109   0.0000      -0.186893        -5.0856
 110   0.0000      -0.138627        -3.7722
 111   0.0000      -0.135833        -3.6962
 112   0.0000      -0.133240        -3.6256
 113   0.0000      -0.122120        -3.3231

                 SPIN DOWN ORBITALS
  NO   OCC          E(Eh)            E(eV)
   0   1.0000    -235.039941     -6395.7620
   1   1.0000     -27.131654      -738.2898
   2   1.0000     -23.200192      -631.3093
   3   1.0000     -23.198215      -631.2555
   4   1.0000     -23.197782      -631.2438
   5   1.0000      -4.119860      -112.1071
   6   1.0000      -4.117874      -112.0531
   7   1.0000      -4.116163      -112.0065
   8   1.0000      -4.115467      -111.9875
   9   1.0000      -4.115000      -111.9748
  10   1.0000      -4.114398      -111.9584
  11   1.0000      -4.114380      -111.9580
  12   1.0000      -4.114056      -111.9492
  13   1.0000      -4.110109      -111.8417
  14   1.0000      -4.108614      -111.8011
  15   1.0000      -3.032421       -82.5164
  16   1.0000      -2.310374       -62.8685
  17   1.0000      -2.309463       -62.8437
  18   1.0000      -2.306987       -62.7763
  19   1.0000      -2.306352       -62.7590
  20   1.0000      -2.305937       -62.7477
  21   1.0000      -2.304470       -62.7078
  22   1.0000      -2.304374       -62.7052
  23   1.0000      -2.302949       -62.6664
  24   1.0000      -2.302702       -62.6597
  25   1.0000      -2.302261       -62.6477
  26   1.0000      -2.302007       -62.6408
  27   1.0000      -2.301695       -62.6323
  28   1.0000      -2.301254       -62.6203
  29   1.0000      -2.301178       -62.6182
  30   1.0000      -2.300878       -62.6101
  31   1.0000      -2.299826       -62.5814
  32   1.0000      -2.299079       -62.5611
  33   1.0000      -2.298478       -62.5448
  34   1.0000      -2.298180       -62.5367
  35   1.0000      -2.297704       -62.5237
  36   1.0000      -2.296580       -62.4931
  37   1.0000      -2.296355       -62.4870
  38   1.0000      -2.296179       -62.4822
  39   1.0000      -2.295155       -62.4543
  40   1.0000      -2.294774       -62.4440
  41   1.0000      -2.294607       -62.4394
  42   1.0000      -2.294550       -62.4379
  43   1.0000      -2.293689       -62.4144
  44   1.0000      -2.293043       -62.3969
  45   1.0000      -2.290983       -62.3408
  46   1.0000      -1.891713       -51.4761
  47   1.0000      -1.890270       -51.4369
  48   1.0000      -1.888811       -51.3972
  49   1.0000      -0.416146       -11.3239
  50   1.0000      -0.383386       -10.4325
  51   1.0000      -0.380333       -10.3494
  52   1.0000      -0.376713       -10.2509
  53   1.0000      -0.371204       -10.1010
  54   1.0000      -0.369708       -10.0603
  55   1.0000      -0.364572        -9.9205
  56   1.0000      -0.360283        -9.8038
  57   1.0000      -0.353399        -9.6165
  58   1.0000      -0.349432        -9.5085
  59   1.0000      -0.345082        -9.3902
  60   1.0000      -0.344353        -9.3703
  61   1.0000      -0.340687        -9.2706
  62   1.0000      -0.336683        -9.1616
  63   1.0000      -0.336307        -9.1514
  64   1.0000      -0.333655        -9.0792
  65   1.0000      -0.329605        -8.9690
  66   1.0000      -0.328344        -8.9347
  67   1.0000      -0.323183        -8.7942
  68   1.0000      -0.321309        -8.7433
  69   1.0000      -0.317634        -8.6433
  70   1.0000      -0.311695        -8.4817
  71   1.0000      -0.310475        -8.4485
  72   1.0000      -0.307022        -8.3545
  73   1.0000      -0.301947        -8.2164
  74   1.0000      -0.300706        -8.1826
  75   1.0000      -0.298547        -8.1239
  76   1.0000      -0.295346        -8.0368
  77   1.0000      -0.293107        -7.9758
  78   1.0000      -0.291885        -7.9426
  79   1.0000      -0.290531        -7.9057
  80   1.0000      -0.290226        -7.8975
  81   1.0000      -0.286957        -7.8085
  82   1.0000      -0.284310        -7.7365
  83   1.0000      -0.282560        -7.6889
  84   1.0000      -0.280042        -7.6203
  85   1.0000      -0.278359        -7.5745
  86   1.0000      -0.278072        -7.5667
  87   1.0000      -0.277052        -7.5390
  88   1.0000      -0.275242        -7.4897
  89   1.0000      -0.271555        -7.3894
  90   1.0000      -0.267642        -7.2829
  91   1.0000      -0.266997        -7.2654
  92   1.0000      -0.266548        -7.2531
  93   1.0000      -0.264215        -7.1897
  94   1.0000      -0.261780        -7.1234
  95   1.0000      -0.258647        -7.0381
  96   1.0000      -0.257756        -7.0139
  97   1.0000      -0.256569        -6.9816
  98   1.0000      -0.253675        -6.9028
  99   1.0000      -0.251025        -6.8307
 100   1.0000      -0.247915        -6.7461
 101   1.0000      -0.237166        -6.4536
 102   1.0000      -0.229630        -6.2486
 103   1.0000      -0.218244        -5.9387
 104   1.0000      -0.207440        -5.6447
 105   1.0000      -0.158301        -4.3076
 106   0.0000      -0.148037        -4.0283
 107   0.0000      -0.142870        -3.8877
 108   0.0000      -0.123220        -3.3530
 109   0.0000      -0.108306        -2.9471
 110   0.0000      -0.108210        -2.9445

MULLIKEN ATOMIC CHARGES AND SPIN POPULATIONS
--------------------------------------------
   0 Au:    0.049710   -0.299251
   1 Au:    0.091335   -0.101952
   2 Au:    0.003553   -0.010064
   3 Au:    0.027917   -0.125114
   4 Au:    0.292688   -0.026323
   5 Au:    0.024151   -0.214438
   6 Au:    0.013471   -0.133450
   7 Au:    0.184745   -0.183104
   8 Au:    0.074021   -0.219573
   9 Au:    0.211758   -0.050647
  10 Mn:   -0.973350    4.363915
Sum of atomic charges         :   -0.0000000

LOEWDIN ATOMIC CHARGES AND SPIN POPULATIONS
-------------------------------------------
   0 Au:   -0.005850   -0.210499
   1 Au:    0.028243   -0.094139
   2 Au:   -0.037620   -0.045166
   3 Au:    0.018098   -0.074296
   4 Au:    0.086863   -0.072424
   5 Au:    0.017449   -0.116392
   6 Au:   -0.031519   -0.100326
   7 Au:    0.063498   -0.245581
   8 Au:    0.019488   -0.145469
   9 Au:    0.055733   -0.081708
  10 Mn:   -0.214384    4.185999

  Mayer bond orders larger than 0.100000
B(  0-Au,  2-Au) :   0.2822 B(  0-Au,  6-Au) :   0.2151 B(  0-Au,  7-Au) :   0.1124
B(  0-Au,  8-Au) :   0.1648 B(  0-Au, 10-Mn) :   0.4890 B(  1-Au,  3-Au) :   0.5049
B(  1-Au,  6-Au) :   0.1604 B(  1-Au,  9-Au) :   0.2794 B(  1-Au, 10-Mn) :   0.6077
B(  2-Au,  3-Au) :   0.1883 B(  2-Au,  4-Au) :   0.3340 B(  2-Au,  5-Au) :   0.1557
B(  2-Au,  6-Au) :   0.4438 B(  2-Au, 10-Mn) :   0.3671 B(  3-Au,  4-Au) :   0.3008
B(  3-Au, 10-Mn) :   0.5729 B(  4-Au,  5-Au) :   0.4102 B(  5-Au,  7-Au) :   0.3856
B(  5-Au, 10-Mn) :   0.5033 B(  6-Au,  9-Au) :   0.2975 B(  6-Au, 10-Mn) :   0.4390
B(  7-Au,  8-Au) :   0.2459 B(  7-Au, 10-Mn) :   0.6355 B(  8-Au,  9-Au) :   0.4062
B(  8-Au, 10-Mn) :   0.4842 B(  9-Au, 10-Mn) :   0.1320

FINAL SINGLE POINT ENERGY     -2509.417829048664

DIPOLE MOMENT
-------------
                                X             Y             Z
Electronic contribution:     27.57408       6.80904      -5.64964
Nuclear contribution   :    -27.56728      -6.72213       5.77733
                        -----------------------------------------
Total Dipole Moment    :      0.00680       0.08690       0.12769
                        -----------------------------------------
Magnitude (a.u.)       :      0.15460
Magnitude (Debye)      :      0.39297

Rotational constants in cm-1:     0.002264     0.001572     0.001200
Rotational constants in MHz :    67.866112    47.141230    35.965628

                             ****ORCA TERMINATED NORMALLY****
TOTAL RUN TIME: 0 days 0 hours 6 minutes 4 seconds 523 msec
