                         Program Version 5.0.3 -  RELEASE  -
|  1> %pal nprocs 1 end
|  2>
|  3> !PBE def2-TZVP OPT UNO
|  4> !SLOWCONV KDIIS
|  5>
|  6> %geom maxiter 300 end
|  7>
|  8> *xyzfile 0 4 2.xyz                           ****END OF INPUT****
 Total Charge           Charge          ....    0
 Multiplicity           Mult            ....    4
 Number of Electrons    NEL             ....  253
FINAL SINGLE POINT ENERGY     -2780.679174459051
FINAL SINGLE POINT ENERGY     -2780.683171933503
FINAL SINGLE POINT ENERGY     -2780.685899332563
FINAL SINGLE POINT ENERGY     -2780.687617229748
FINAL SINGLE POINT ENERGY     -2780.688433489400
FINAL SINGLE POINT ENERGY     -2780.689030639889
FINAL SINGLE POINT ENERGY     -2780.689864302270
FINAL SINGLE POINT ENERGY     -2780.690619946595
FINAL SINGLE POINT ENERGY     -2780.691094936737
FINAL SINGLE POINT ENERGY     -2780.691477032083
FINAL SINGLE POINT ENERGY     -2780.692406191112
FINAL SINGLE POINT ENERGY     -2780.692421425377
FINAL SINGLE POINT ENERGY     -2780.692435784623
FINAL SINGLE POINT ENERGY     -2780.692442555332
FINAL SINGLE POINT ENERGY     -2780.692450217740
FINAL SINGLE POINT ENERGY     -2780.692463952647
FINAL SINGLE POINT ENERGY     -2780.692474114299
FINAL SINGLE POINT ENERGY     -2780.692481272177
FINAL SINGLE POINT ENERGY     -2780.692484439215
                    ***********************HURRAY********************

CARTESIAN COORDINATES (ANGSTROEM)
---------------------------------
  Au    10.767950   12.175862    8.164332
  Au     8.312011    8.284408   10.479405
  Au    10.276731    9.844093    9.566493
  Au     6.568404    7.208827    8.713589
  Au    12.491259    9.787470    7.905995
  Au     6.150269    9.715466    7.238421
  Au     8.161119   11.406047    7.856120
  Au    10.925220    7.603137    7.419821
  Au    10.249192   10.177526    6.245914
  Au     8.637916    6.290105    6.853433
  Au     6.048141    7.143595    6.022553
  Au     8.180104    8.766752    5.257013
  Mn     8.555103    8.759659    7.858300

 Multiplicity           Mult            ....    4
 Number of Electrons    NEL             ....  253
 Basis Dimension        Dim             ....  525

ORBITAL ENERGIES
----------------
                 SPIN UP ORBITALS
  NO   OCC          E(Eh)            E(eV)
   0   1.0000    -234.201406     -6372.9443
   1   1.0000     -26.898505      -731.9455
   2   1.0000     -23.047707      -627.1600
   3   1.0000     -23.047274      -627.1482
   4   1.0000     -23.046786      -627.1349
   5   1.0000      -4.030848      -109.6849
   6   1.0000      -4.030396      -109.6727
   7   1.0000      -4.025958      -109.5519
   8   1.0000      -4.025774      -109.5469
   9   1.0000      -4.023461      -109.4839
  10   1.0000      -4.023350      -109.4809
  11   1.0000      -4.021389      -109.4276
  12   1.0000      -4.021344      -109.4263
  13   1.0000      -4.019777      -109.3837
  14   1.0000      -4.017919      -109.3331
  15   1.0000      -4.016026      -109.2816
  16   1.0000      -4.015738      -109.2738
  17   1.0000      -3.103213       -84.4427
  18   1.0000      -2.248932       -61.1965
  19   1.0000      -2.248572       -61.1867
  20   1.0000      -2.243795       -61.0568
  21   1.0000      -2.243263       -61.0423
  22   1.0000      -2.242753       -61.0284
  23   1.0000      -2.242656       -61.0258
  24   1.0000      -2.242008       -61.0081
  25   1.0000      -2.241928       -61.0060
  26   1.0000      -2.240943       -60.9791
  27   1.0000      -2.240872       -60.9772
  28   1.0000      -2.240212       -60.9593
  29   1.0000      -2.238600       -60.9154
  30   1.0000      -2.237969       -60.8982
  31   1.0000      -2.237676       -60.8903
  32   1.0000      -2.236926       -60.8698
  33   1.0000      -2.236805       -60.8666
  34   1.0000      -2.235526       -60.8318
  35   1.0000      -2.235307       -60.8258
  36   1.0000      -2.235086       -60.8198
  37   1.0000      -2.233653       -60.7808
  38   1.0000      -2.233618       -60.7798
  39   1.0000      -2.232968       -60.7621
  40   1.0000      -2.232721       -60.7554
  41   1.0000      -2.232073       -60.7378
  42   1.0000      -2.231252       -60.7155
  43   1.0000      -2.230343       -60.6907
  44   1.0000      -2.230241       -60.6880
  45   1.0000      -2.230102       -60.6842
  46   1.0000      -2.229984       -60.6809
  47   1.0000      -2.229071       -60.6561
  48   1.0000      -2.229044       -60.6554
  49   1.0000      -2.228921       -60.6520
  50   1.0000      -2.227817       -60.6220
  51   1.0000      -2.227123       -60.6031
  52   1.0000      -2.226698       -60.5915
  53   1.0000      -2.223442       -60.5029
  54   1.0000      -2.005966       -54.5851
  55   1.0000      -2.005621       -54.5757
  56   1.0000      -2.005380       -54.5692
  57   1.0000      -0.419867       -11.4252
  58   1.0000      -0.387419       -10.5422
  59   1.0000      -0.373894       -10.1742
  60   1.0000      -0.369384       -10.0514
  61   1.0000      -0.366487        -9.9726
  62   1.0000      -0.364641        -9.9224
  63   1.0000      -0.361008        -9.8235
  64   1.0000      -0.357362        -9.7243
  65   1.0000      -0.356526        -9.7016
  66   1.0000      -0.352367        -9.5884
  67   1.0000      -0.343978        -9.3601
  68   1.0000      -0.342205        -9.3119
  69   1.0000      -0.338354        -9.2071
  70   1.0000      -0.335157        -9.1201
  71   1.0000      -0.334776        -9.1097
  72   1.0000      -0.333124        -9.0648
  73   1.0000      -0.332364        -9.0441
  74   1.0000      -0.331088        -9.0094
  75   1.0000      -0.330476        -8.9927
  76   1.0000      -0.326101        -8.8737
  77   1.0000      -0.324499        -8.8301
  78   1.0000      -0.319485        -8.6936
  79   1.0000      -0.313154        -8.5213
  80   1.0000      -0.311462        -8.4753
  81   1.0000      -0.310822        -8.4579
  82   1.0000      -0.310245        -8.4422
  83   1.0000      -0.303605        -8.2615
  84   1.0000      -0.300938        -8.1889
  85   1.0000      -0.297660        -8.0998
  86   1.0000      -0.296597        -8.0708
  87   1.0000      -0.291773        -7.9395
  88   1.0000      -0.290930        -7.9166
  89   1.0000      -0.289353        -7.8737
  90   1.0000      -0.287995        -7.8367
  91   1.0000      -0.285517        -7.7693
  92   1.0000      -0.284167        -7.7326
  93   1.0000      -0.280063        -7.6209
  94   1.0000      -0.277287        -7.5454
  95   1.0000      -0.277042        -7.5387
  96   1.0000      -0.275867        -7.5067
  97   1.0000      -0.273119        -7.4320
  98   1.0000      -0.271409        -7.3854
  99   1.0000      -0.271247        -7.3810
 100   1.0000      -0.269948        -7.3457
 101   1.0000      -0.266803        -7.2601
 102   1.0000      -0.266639        -7.2556
 103   1.0000      -0.263637        -7.1739
 104   1.0000      -0.262123        -7.1327
 105   1.0000      -0.261591        -7.1182
 106   1.0000      -0.259737        -7.0678
 107   1.0000      -0.258984        -7.0473
 108   1.0000      -0.257988        -7.0202
 109   1.0000      -0.256447        -6.9783
 110   1.0000      -0.254680        -6.9302
 111   1.0000      -0.253398        -6.8953
 112   1.0000      -0.251933        -6.8554
 113   1.0000      -0.250470        -6.8156
 114   1.0000      -0.248004        -6.7485
 115   1.0000      -0.246629        -6.7111
 116   1.0000      -0.245741        -6.6870
 117   1.0000      -0.243032        -6.6132
 118   1.0000      -0.241647        -6.5755
 119   1.0000      -0.239489        -6.5168
 120   1.0000      -0.237539        -6.4638
 121   1.0000      -0.235657        -6.4126
 122   1.0000      -0.234647        -6.3851
 123   1.0000      -0.232927        -6.3383
 124   1.0000      -0.229515        -6.2454
 125   1.0000      -0.228389        -6.2148
 126   1.0000      -0.216510        -5.8915
 127   1.0000      -0.193057        -5.2533
 128   0.0000      -0.180632        -4.9152
 129   0.0000      -0.175738        -4.7821
 130   0.0000      -0.139105        -3.7852
 131   0.0000      -0.130910        -3.5623
 132   0.0000      -0.128704        -3.5022

                 SPIN DOWN ORBITALS
  NO   OCC          E(Eh)            E(eV)
   0   1.0000    -234.200700     -6372.9251
   1   1.0000     -26.835731      -730.2374
   2   1.0000     -23.001084      -625.8913
   3   1.0000     -22.999510      -625.8485
   4   1.0000     -22.998129      -625.8109
   5   1.0000      -4.030631      -109.6790
   6   1.0000      -4.029462      -109.6472
   7   1.0000      -4.025721      -109.5454
   8   1.0000      -4.025460      -109.5383
   9   1.0000      -4.023135      -109.4751
  10   1.0000      -4.023001      -109.4714
  11   1.0000      -4.021244      -109.4236
  12   1.0000      -4.021233      -109.4233
  13   1.0000      -4.020279      -109.3974
  14   1.0000      -4.017723      -109.3278
  15   1.0000      -4.016476      -109.2939
  16   1.0000      -4.016201      -109.2864
  17   1.0000      -2.949701       -80.2654
  18   1.0000      -2.248247       -61.1779
  19   1.0000      -2.247724       -61.1637
  20   1.0000      -2.243125       -61.0385
  21   1.0000      -2.242544       -61.0227
  22   1.0000      -2.242229       -61.0142
  23   1.0000      -2.241898       -61.0051
  24   1.0000      -2.241674       -60.9991
  25   1.0000      -2.241498       -60.9943
  26   1.0000      -2.240849       -60.9766
  27   1.0000      -2.240176       -60.9583
  28   1.0000      -2.239955       -60.9523
  29   1.0000      -2.238035       -60.9000
  30   1.0000      -2.237124       -60.8753
  31   1.0000      -2.236883       -60.8687
  32   1.0000      -2.236340       -60.8539
  33   1.0000      -2.236264       -60.8518
  34   1.0000      -2.235383       -60.8279
  35   1.0000      -2.234955       -60.8162
  36   1.0000      -2.234860       -60.8136
  37   1.0000      -2.234167       -60.7948
  38   1.0000      -2.233648       -60.7806
  39   1.0000      -2.233029       -60.7638
  40   1.0000      -2.232878       -60.7597
  41   1.0000      -2.232713       -60.7552
  42   1.0000      -2.231437       -60.7205
  43   1.0000      -2.230800       -60.7031
  44   1.0000      -2.230425       -60.6930
  45   1.0000      -2.230351       -60.6909
  46   1.0000      -2.230173       -60.6861
  47   1.0000      -2.229407       -60.6652
  48   1.0000      -2.229336       -60.6633
  49   1.0000      -2.229253       -60.6611
  50   1.0000      -2.228289       -60.6348
  51   1.0000      -2.227828       -60.6223
  52   1.0000      -2.227346       -60.6092
  53   1.0000      -2.222828       -60.4862
  54   1.0000      -1.858355       -50.5684
  55   1.0000      -1.854342       -50.4592
  56   1.0000      -1.852396       -50.4063
  57   1.0000      -0.414406       -11.2766
  58   1.0000      -0.386508       -10.5174
  59   1.0000      -0.369758       -10.0616
  60   1.0000      -0.368319       -10.0225
  61   1.0000      -0.365185        -9.9372
  62   1.0000      -0.362402        -9.8615
  63   1.0000      -0.356368        -9.6973
  64   1.0000      -0.353149        -9.6097
  65   1.0000      -0.351115        -9.5543
  66   1.0000      -0.345825        -9.4104
  67   1.0000      -0.342086        -9.3086
  68   1.0000      -0.337727        -9.1900
  69   1.0000      -0.336709        -9.1623
  70   1.0000      -0.334977        -9.1152
  71   1.0000      -0.334259        -9.0957
  72   1.0000      -0.331678        -9.0254
  73   1.0000      -0.330524        -8.9940
  74   1.0000      -0.325405        -8.8547
  75   1.0000      -0.325129        -8.8472
  76   1.0000      -0.321513        -8.7488
  77   1.0000      -0.318811        -8.6753
  78   1.0000      -0.315670        -8.5898
  79   1.0000      -0.313626        -8.5342
  80   1.0000      -0.311455        -8.4751
  81   1.0000      -0.309592        -8.4244
  82   1.0000      -0.308509        -8.3950
  83   1.0000      -0.303473        -8.2579
  84   1.0000      -0.299393        -8.1469
  85   1.0000      -0.296446        -8.0667
  86   1.0000      -0.294698        -8.0191
  87   1.0000      -0.291207        -7.9242
  88   1.0000      -0.290995        -7.9184
  89   1.0000      -0.287844        -7.8326
  90   1.0000      -0.286520        -7.7966
  91   1.0000      -0.283001        -7.7009
  92   1.0000      -0.281999        -7.6736
  93   1.0000      -0.277853        -7.5608
  94   1.0000      -0.277013        -7.5379
  95   1.0000      -0.276235        -7.5167
  96   1.0000      -0.275032        -7.4840
  97   1.0000      -0.272218        -7.4074
  98   1.0000      -0.272000        -7.4015
  99   1.0000      -0.271568        -7.3897
 100   1.0000      -0.270374        -7.3573
 101   1.0000      -0.267154        -7.2696
 102   1.0000      -0.266813        -7.2603
 103   1.0000      -0.264202        -7.1893
 104   1.0000      -0.262825        -7.1518
 105   1.0000      -0.261779        -7.1234
 106   1.0000      -0.259961        -7.0739
 107   1.0000      -0.259455        -7.0601
 108   1.0000      -0.258145        -7.0245
 109   1.0000      -0.255746        -6.9592
 110   1.0000      -0.255186        -6.9440
 111   1.0000      -0.252182        -6.8622
 112   1.0000      -0.250102        -6.8056
 113   1.0000      -0.248667        -6.7666
 114   1.0000      -0.246509        -6.7078
 115   1.0000      -0.245378        -6.6771
 116   1.0000      -0.242516        -6.5992
 117   1.0000      -0.241750        -6.5783
 118   1.0000      -0.240349        -6.5402
 119   1.0000      -0.236813        -6.4440
 120   1.0000      -0.236626        -6.4389
 121   1.0000      -0.222955        -6.0669
 122   1.0000      -0.200912        -5.4671
 123   1.0000      -0.200543        -5.4570
 124   1.0000      -0.196146        -5.3374
 125   0.0000      -0.146685        -3.9915
 126   0.0000      -0.140280        -3.8172
 127   0.0000      -0.135370        -3.6836
 128   0.0000      -0.132549        -3.6068
 129   0.0000      -0.128731        -3.5029

MULLIKEN ATOMIC CHARGES AND SPIN POPULATIONS
--------------------------------------------
   0 Au:    0.336061    0.039060
   1 Au:    0.235584   -0.064658
   2 Au:   -0.008096   -0.149632
   3 Au:    0.225287   -0.185562
   4 Au:    0.330221    0.038839
   5 Au:    0.174009   -0.018533
   6 Au:    0.066748   -0.059937
   7 Au:    0.066277   -0.060230
   8 Au:    0.068474   -0.151733
   9 Au:    0.174622   -0.019472
  10 Au:    0.337110   -0.074648
  11 Au:    0.169261   -0.163443
  12 Mn:   -2.175558    3.869949
Sum of atomic charges         :   -0.0000000

LOEWDIN ATOMIC CHARGES AND SPIN POPULATIONS
-------------------------------------------
   0 Au:    0.052422   -0.005059
   1 Au:    0.155193   -0.123110
   2 Au:   -0.038654   -0.060448
   3 Au:    0.020007   -0.115331
   4 Au:    0.050757   -0.005704
   5 Au:    0.060705   -0.056172
   6 Au:    0.061478   -0.049653
   7 Au:    0.061815   -0.048745
   8 Au:   -0.025198   -0.080730
   9 Au:    0.059552   -0.057683
  10 Au:    0.046021   -0.086230
  11 Au:    0.071918   -0.118651
  12 Mn:   -0.576016    3.807517

  Mayer bond orders larger than 0.100000
B(  0-Au,  2-Au) :   0.3265 B(  0-Au,  4-Au) :   0.1183 B(  0-Au,  6-Au) :   0.4148
B(  0-Au,  8-Au) :   0.2641 B(  1-Au,  2-Au) :   0.4162 B(  1-Au,  3-Au) :   0.2770
B(  1-Au, 12-Mn) :   0.5640 B(  2-Au,  4-Au) :   0.3226 B(  2-Au,  8-Au) :   0.1054
B(  2-Au, 12-Mn) :   0.4945 B(  3-Au,  5-Au) :   0.1475 B(  3-Au,  9-Au) :   0.1503
B(  3-Au, 10-Au) :   0.2993 B(  3-Au, 12-Mn) :   0.5237 B(  4-Au,  7-Au) :   0.4199
B(  4-Au,  8-Au) :   0.2650 B(  5-Au,  6-Au) :   0.3480 B(  5-Au,  9-Au) :   0.1028
B(  5-Au, 10-Au) :   0.2285 B(  5-Au, 11-Au) :   0.1290 B(  5-Au, 12-Mn) :   0.5308
B(  6-Au,  8-Au) :   0.1606 B(  6-Au, 12-Mn) :   0.6046 B(  7-Au,  8-Au) :   0.1613
B(  7-Au,  9-Au) :   0.3501 B(  7-Au, 12-Mn) :   0.6057 B(  8-Au, 11-Au) :   0.3683
B(  8-Au, 12-Mn) :   0.4710 B(  9-Au, 10-Au) :   0.2251 B(  9-Au, 11-Au) :   0.1316
B(  9-Au, 12-Mn) :   0.5273 B( 10-Au, 11-Au) :   0.2927 B( 10-Au, 12-Mn) :   0.1166
B( 11-Au, 12-Mn) :   0.6256

FINAL SINGLE POINT ENERGY     -2780.692485963093

DIPOLE MOMENT
-------------
                                X             Y             Z
Electronic contribution:     12.37438       9.92365      -7.88048
Nuclear contribution   :    -12.45215      -9.96694       7.81166
                        -----------------------------------------
Total Dipole Moment    :     -0.07777      -0.04329      -0.06882
                        -----------------------------------------
Magnitude (a.u.)       :      0.11251
Magnitude (Debye)      :      0.28599

Rotational constants in cm-1:     0.001799     0.001040     0.001021
Rotational constants in MHz :    53.942579    31.169120    30.597360

                             ****ORCA TERMINATED NORMALLY****
TOTAL RUN TIME: 0 days 5 hours 24 minutes 50 seconds 70 msec
