                         Program Version 5.0.3 -  RELEASE  -
|  1> %pal nprocs 1 end
|  2>
|  3> !PBE def2-TZVP OPT UNO
|  4> !SLOWCONV
|  5>
|  6> *xyzfile 0 3 2.xyz                           ****END OF INPUT****
 Total Charge           Charge          ....    0
 Multiplicity           Mult            ....    3
 Number of Electrons    NEL             ....  292
FINAL SINGLE POINT ENERGY     -3165.057628683962
FINAL SINGLE POINT ENERGY     -3165.059750763292
FINAL SINGLE POINT ENERGY     -3165.060410844416
FINAL SINGLE POINT ENERGY     -3165.061019460798
FINAL SINGLE POINT ENERGY     -3165.061374575857
FINAL SINGLE POINT ENERGY     -3165.061654903937
FINAL SINGLE POINT ENERGY     -3165.061895391858
FINAL SINGLE POINT ENERGY     -3165.062030444946
FINAL SINGLE POINT ENERGY     -3165.062110867758
FINAL SINGLE POINT ENERGY     -3165.062286121498
FINAL SINGLE POINT ENERGY     -3165.062424524025
FINAL SINGLE POINT ENERGY     -3165.062510150099
FINAL SINGLE POINT ENERGY     -3165.062570434558
FINAL SINGLE POINT ENERGY     -3165.062619213228
FINAL SINGLE POINT ENERGY     -3165.062640165897
FINAL SINGLE POINT ENERGY     -3165.062646565632
                    ***********************HURRAY********************

CARTESIAN COORDINATES (ANGSTROEM)
---------------------------------
  Au     7.556493    5.540447    9.121005
  Au     5.736210    9.489030    7.502077
  Au     3.674044    8.234908    6.041816
  Au     5.893941    9.229769    4.675734
  Au     5.285677    6.646396    7.724861
  Au     6.556914    8.083021    9.849049
  Au     7.408503    5.179220    6.340537
  Au     5.454462    6.420186    4.893261
  Au     8.075436    7.449969    4.844184
  Au    10.283488    8.674300    7.194182
  Au     8.171453   10.016382    5.957003
  Au     9.855602    5.956114    7.439394
  Au     9.357517    7.631034    9.776413
  Au     8.280636   10.042675    8.758993
  Fe     7.823043    7.692104    7.491621

 Multiplicity           Mult            ....    3
 Number of Electrons    NEL             ....  292
 Basis Dimension        Dim             ....  605

ORBITAL ENERGIES
----------------
                 SPIN UP ORBITALS
  NO   OCC          E(Eh)            E(eV)
   0   1.0000    -254.749530     -6932.0871
   1   1.0000     -29.584961      -805.0477
   2   1.0000     -25.526924      -694.6229
   3   1.0000     -25.523330      -694.5251
   4   1.0000     -25.511919      -694.2146
   5   1.0000      -4.033627      -109.7606
   6   1.0000      -4.033450      -109.7558
   7   1.0000      -4.032108      -109.7192
   8   1.0000      -4.031601      -109.7054
   9   1.0000      -4.031550      -109.7040
  10   1.0000      -4.030859      -109.6852
  11   1.0000      -4.030773      -109.6829
  12   1.0000      -4.028353      -109.6171
  13   1.0000      -4.025198      -109.5312
  14   1.0000      -4.025053      -109.5272
  15   1.0000      -4.020611      -109.4064
  16   1.0000      -4.016710      -109.3002
  17   1.0000      -4.016613      -109.2976
  18   1.0000      -4.015056      -109.2552
  19   1.0000      -3.361854       -91.4807
  20   1.0000      -2.248914       -61.1961
  21   1.0000      -2.248800       -61.1930
  22   1.0000      -2.248141       -61.1750
  23   1.0000      -2.247709       -61.1633
  24   1.0000      -2.247274       -61.1514
  25   1.0000      -2.247105       -61.1468
  26   1.0000      -2.246436       -61.1286
  27   1.0000      -2.246172       -61.1214
  28   1.0000      -2.245807       -61.1115
  29   1.0000      -2.245711       -61.1089
  30   1.0000      -2.244828       -61.0849
  31   1.0000      -2.244563       -61.0777
  32   1.0000      -2.244315       -61.0709
  33   1.0000      -2.243437       -61.0470
  34   1.0000      -2.243131       -61.0387
  35   1.0000      -2.243096       -61.0377
  36   1.0000      -2.242938       -61.0335
  37   1.0000      -2.242832       -61.0306
  38   1.0000      -2.242605       -61.0244
  39   1.0000      -2.242080       -61.0101
  40   1.0000      -2.242011       -61.0082
  41   1.0000      -2.241359       -60.9905
  42   1.0000      -2.241284       -60.9884
  43   1.0000      -2.240959       -60.9796
  44   1.0000      -2.239843       -60.9492
  45   1.0000      -2.239648       -60.9439
  46   1.0000      -2.239586       -60.9422
  47   1.0000      -2.237441       -60.8839
  48   1.0000      -2.235278       -60.8250
  49   1.0000      -2.234557       -60.8054
  50   1.0000      -2.234386       -60.8007
  51   1.0000      -2.233421       -60.7745
  52   1.0000      -2.232802       -60.7576
  53   1.0000      -2.232483       -60.7490
  54   1.0000      -2.232435       -60.7476
  55   1.0000      -2.229966       -60.6804
  56   1.0000      -2.229200       -60.6596
  57   1.0000      -2.228580       -60.6428
  58   1.0000      -2.227591       -60.6158
  59   1.0000      -2.227302       -60.6080
  60   1.0000      -2.226378       -60.5828
  61   1.0000      -2.225551       -60.5603
  62   1.0000      -2.188529       -59.5529
  63   1.0000      -2.180796       -59.3425
  64   1.0000      -2.158178       -58.7270
  65   1.0000      -0.438019       -11.9191
  66   1.0000      -0.389723       -10.6049
  67   1.0000      -0.388135       -10.5617
  68   1.0000      -0.383623       -10.4389
  69   1.0000      -0.375629       -10.2214
  70   1.0000      -0.375133       -10.2079
  71   1.0000      -0.371514       -10.1094
  72   1.0000      -0.368091       -10.0163
  73   1.0000      -0.366486        -9.9726
  74   1.0000      -0.362242        -9.8571
  75   1.0000      -0.355573        -9.6756
  76   1.0000      -0.355214        -9.6659
  77   1.0000      -0.353014        -9.6060
  78   1.0000      -0.351011        -9.5515
  79   1.0000      -0.347813        -9.4645
  80   1.0000      -0.347149        -9.4464
  81   1.0000      -0.346304        -9.4234
  82   1.0000      -0.342331        -9.3153
  83   1.0000      -0.340878        -9.2758
  84   1.0000      -0.340049        -9.2532
  85   1.0000      -0.339848        -9.2477
  86   1.0000      -0.336902        -9.1676
  87   1.0000      -0.335069        -9.1177
  88   1.0000      -0.332603        -9.0506
  89   1.0000      -0.327769        -8.9191
  90   1.0000      -0.325044        -8.8449
  91   1.0000      -0.323559        -8.8045
  92   1.0000      -0.319446        -8.6926
  93   1.0000      -0.317306        -8.6343
  94   1.0000      -0.317095        -8.6286
  95   1.0000      -0.312690        -8.5087
  96   1.0000      -0.311564        -8.4781
  97   1.0000      -0.308621        -8.3980
  98   1.0000      -0.307911        -8.3787
  99   1.0000      -0.301884        -8.2147
 100   1.0000      -0.301027        -8.1914
 101   1.0000      -0.297737        -8.1018
 102   1.0000      -0.296824        -8.0770
 103   1.0000      -0.295711        -8.0467
 104   1.0000      -0.294383        -8.0106
 105   1.0000      -0.293310        -7.9814
 106   1.0000      -0.289759        -7.8847
 107   1.0000      -0.284987        -7.7549
 108   1.0000      -0.284633        -7.7453
 109   1.0000      -0.281430        -7.6581
 110   1.0000      -0.277702        -7.5567
 111   1.0000      -0.276048        -7.5117
 112   1.0000      -0.275020        -7.4837
 113   1.0000      -0.274827        -7.4784
 114   1.0000      -0.272361        -7.4113
 115   1.0000      -0.272119        -7.4047
 116   1.0000      -0.267374        -7.2756
 117   1.0000      -0.265891        -7.2352
 118   1.0000      -0.264210        -7.1895
 119   1.0000      -0.263147        -7.1606
 120   1.0000      -0.262663        -7.1474
 121   1.0000      -0.261670        -7.1204
 122   1.0000      -0.259714        -7.0672
 123   1.0000      -0.257088        -6.9957
 124   1.0000      -0.256673        -6.9844
 125   1.0000      -0.256444        -6.9782
 126   1.0000      -0.253658        -6.9024
 127   1.0000      -0.253283        -6.8922
 128   1.0000      -0.252101        -6.8600
 129   1.0000      -0.251847        -6.8531
 130   1.0000      -0.251558        -6.8452
 131   1.0000      -0.250217        -6.8087
 132   1.0000      -0.249709        -6.7949
 133   1.0000      -0.247656        -6.7391
 134   1.0000      -0.245404        -6.6778
 135   1.0000      -0.245243        -6.6734
 136   1.0000      -0.243873        -6.6361
 137   1.0000      -0.242531        -6.5996
 138   1.0000      -0.241759        -6.5786
 139   1.0000      -0.239909        -6.5282
 140   1.0000      -0.239283        -6.5112
 141   1.0000      -0.238379        -6.4866
 142   1.0000      -0.236154        -6.4261
 143   1.0000      -0.231779        -6.3070
 144   1.0000      -0.212194        -5.7741
 145   1.0000      -0.202939        -5.5222
 146   1.0000      -0.197274        -5.3681
 147   0.0000      -0.184091        -5.0094
 148   0.0000      -0.179826        -4.8933
 149   0.0000      -0.141188        -3.8419
 150   0.0000      -0.133033        -3.6200
 151   0.0000      -0.124743        -3.3944

                 SPIN DOWN ORBITALS
  NO   OCC          E(Eh)            E(eV)
   0   1.0000    -254.748897     -6932.0699
   1   1.0000     -29.529724      -803.5446
   2   1.0000     -25.482928      -693.4257
   3   1.0000     -25.481006      -693.3734
   4   1.0000     -25.473130      -693.1591
   5   1.0000      -4.033787      -109.7649
   6   1.0000      -4.033637      -109.7608
   7   1.0000      -4.032249      -109.7231
   8   1.0000      -4.031734      -109.7091
   9   1.0000      -4.031672      -109.7074
  10   1.0000      -4.031245      -109.6958
  11   1.0000      -4.031168      -109.6936
  12   1.0000      -4.027901      -109.6048
  13   1.0000      -4.025206      -109.5314
  14   1.0000      -4.025057      -109.5274
  15   1.0000      -4.021043      -109.4181
  16   1.0000      -4.017198      -109.3135
  17   1.0000      -4.017102      -109.3109
  18   1.0000      -4.015708      -109.2730
  19   1.0000      -3.236771       -88.0770
  20   1.0000      -2.249050       -61.1998
  21   1.0000      -2.248959       -61.1973
  22   1.0000      -2.248296       -61.1793
  23   1.0000      -2.247811       -61.1660
  24   1.0000      -2.247238       -61.1505
  25   1.0000      -2.247013       -61.1443
  26   1.0000      -2.246561       -61.1320
  27   1.0000      -2.246187       -61.1219
  28   1.0000      -2.246102       -61.1196
  29   1.0000      -2.245758       -61.1102
  30   1.0000      -2.245003       -61.0896
  31   1.0000      -2.244826       -61.0848
  32   1.0000      -2.244554       -61.0774
  33   1.0000      -2.243766       -61.0560
  34   1.0000      -2.243447       -61.0473
  35   1.0000      -2.243409       -61.0463
  36   1.0000      -2.243298       -61.0432
  37   1.0000      -2.243122       -61.0385
  38   1.0000      -2.242344       -61.0173
  39   1.0000      -2.242166       -61.0124
  40   1.0000      -2.241753       -61.0012
  41   1.0000      -2.241634       -60.9980
  42   1.0000      -2.241015       -60.9811
  43   1.0000      -2.240983       -60.9802
  44   1.0000      -2.239592       -60.9424
  45   1.0000      -2.239461       -60.9388
  46   1.0000      -2.239200       -60.9317
  47   1.0000      -2.237465       -60.8845
  48   1.0000      -2.235585       -60.8334
  49   1.0000      -2.234904       -60.8148
  50   1.0000      -2.234411       -60.8014
  51   1.0000      -2.234058       -60.7918
  52   1.0000      -2.233729       -60.7828
  53   1.0000      -2.233143       -60.7669
  54   1.0000      -2.232823       -60.7582
  55   1.0000      -2.230618       -60.6982
  56   1.0000      -2.229883       -60.6782
  57   1.0000      -2.229467       -60.6669
  58   1.0000      -2.228233       -60.6333
  59   1.0000      -2.227864       -60.6233
  60   1.0000      -2.226696       -60.5915
  61   1.0000      -2.225774       -60.5664
  62   1.0000      -2.059655       -56.0461
  63   1.0000      -2.056811       -55.9687
  64   1.0000      -2.043702       -55.6120
  65   1.0000      -0.434851       -11.8329
  66   1.0000      -0.389719       -10.6048
  67   1.0000      -0.388457       -10.5705
  68   1.0000      -0.383017       -10.4224
  69   1.0000      -0.369913       -10.0658
  70   1.0000      -0.369568       -10.0565
  71   1.0000      -0.366354        -9.9690
  72   1.0000      -0.364844        -9.9279
  73   1.0000      -0.363469        -9.8905
  74   1.0000      -0.360676        -9.8145
  75   1.0000      -0.355517        -9.6741
  76   1.0000      -0.354386        -9.6433
  77   1.0000      -0.353686        -9.6243
  78   1.0000      -0.350828        -9.5465
  79   1.0000      -0.348095        -9.4721
  80   1.0000      -0.347153        -9.4465
  81   1.0000      -0.346957        -9.4412
  82   1.0000      -0.342470        -9.3191
  83   1.0000      -0.341590        -9.2951
  84   1.0000      -0.341023        -9.2797
  85   1.0000      -0.340119        -9.2551
  86   1.0000      -0.337963        -9.1964
  87   1.0000      -0.334524        -9.1029
  88   1.0000      -0.332176        -9.0390
  89   1.0000      -0.327523        -8.9123
  90   1.0000      -0.325325        -8.8525
  91   1.0000      -0.324017        -8.8170
  92   1.0000      -0.320174        -8.7124
  93   1.0000      -0.316596        -8.6150
  94   1.0000      -0.313887        -8.5413
  95   1.0000      -0.313401        -8.5281
  96   1.0000      -0.310173        -8.4402
  97   1.0000      -0.305276        -8.3070
  98   1.0000      -0.304250        -8.2791
  99   1.0000      -0.298559        -8.1242
 100   1.0000      -0.297595        -8.0980
 101   1.0000      -0.296674        -8.0729
 102   1.0000      -0.296421        -8.0660
 103   1.0000      -0.292538        -7.9604
 104   1.0000      -0.291085        -7.9208
 105   1.0000      -0.288331        -7.8459
 106   1.0000      -0.286965        -7.8087
 107   1.0000      -0.282688        -7.6923
 108   1.0000      -0.282648        -7.6913
 109   1.0000      -0.280354        -7.6288
 110   1.0000      -0.277011        -7.5378
 111   1.0000      -0.276006        -7.5105
 112   1.0000      -0.275301        -7.4913
 113   1.0000      -0.274969        -7.4823
 114   1.0000      -0.273241        -7.4353
 115   1.0000      -0.271621        -7.3912
 116   1.0000      -0.268449        -7.3049
 117   1.0000      -0.266687        -7.2569
 118   1.0000      -0.264594        -7.2000
 119   1.0000      -0.263137        -7.1603
 120   1.0000      -0.263042        -7.1577
 121   1.0000      -0.262236        -7.1358
 122   1.0000      -0.260627        -7.0920
 123   1.0000      -0.258058        -7.0221
 124   1.0000      -0.256908        -6.9908
 125   1.0000      -0.256703        -6.9852
 126   1.0000      -0.253627        -6.9015
 127   1.0000      -0.253380        -6.8948
 128   1.0000      -0.252653        -6.8750
 129   1.0000      -0.252065        -6.8590
 130   1.0000      -0.249594        -6.7918
 131   1.0000      -0.248297        -6.7565
 132   1.0000      -0.246506        -6.7078
 133   1.0000      -0.244561        -6.6549
 134   1.0000      -0.244077        -6.6417
 135   1.0000      -0.243017        -6.6128
 136   1.0000      -0.240440        -6.5427
 137   1.0000      -0.239194        -6.5088
 138   1.0000      -0.238268        -6.4836
 139   1.0000      -0.221365        -6.0236
 140   1.0000      -0.210274        -5.7219
 141   1.0000      -0.207390        -5.6434
 142   1.0000      -0.202200        -5.5021
 143   1.0000      -0.196817        -5.3557
 144   1.0000      -0.173605        -4.7240
 145   0.0000      -0.156328        -4.2539
 146   0.0000      -0.155649        -4.2354
 147   0.0000      -0.148688        -4.0460
 148   0.0000      -0.148412        -4.0385
 149   0.0000      -0.138531        -3.7696

MULLIKEN ATOMIC CHARGES AND SPIN POPULATIONS
--------------------------------------------
   0 Au:    0.356336   -0.072452
   1 Au:   -0.152011   -0.107407
   2 Au:    0.365567   -0.087497
   3 Au:    0.127866    0.028485
   4 Au:   -0.152725   -0.105179
   5 Au:    0.356291   -0.073456
   6 Au:    0.156470   -0.076828
   7 Au:    0.129578    0.026868
   8 Au:    0.154316   -0.054652
   9 Au:    0.308689   -0.082374
  10 Au:    0.156052   -0.076087
  11 Au:    0.308371   -0.083499
  12 Au:    0.252277    0.022645
  13 Au:    0.356125   -0.075306
  14 Fe:   -2.723205    2.816741
Sum of atomic charges         :    0.0000000

LOEWDIN ATOMIC CHARGES AND SPIN POPULATIONS
-------------------------------------------
   0 Au:    0.080770   -0.080639
   1 Au:   -0.000200   -0.091355
   2 Au:    0.072204   -0.070666
   3 Au:   -0.024589   -0.007573
   4 Au:   -0.000149   -0.091309
   5 Au:    0.099284   -0.084800
   6 Au:    0.058070   -0.085560
   7 Au:   -0.024446   -0.008444
   8 Au:    0.069020   -0.038954
   9 Au:    0.091044   -0.087677
  10 Au:    0.057096   -0.085967
  11 Au:    0.090307   -0.087963
  12 Au:    0.035920   -0.008828
  13 Au:    0.081199   -0.082309
  14 Fe:   -0.685528    2.912044

  Mayer bond orders larger than 0.100000
B(  0-Au,  4-Au) :   0.1878 B(  0-Au,  5-Au) :   0.1685 B(  0-Au,  6-Au) :   0.1775
B(  0-Au, 11-Au) :   0.1587 B(  0-Au, 12-Au) :   0.2050 B(  0-Au, 14-Fe) :   0.4751
B(  1-Au,  2-Au) :   0.2990 B(  1-Au,  3-Au) :   0.2718 B(  1-Au,  4-Au) :   0.2484
B(  1-Au,  5-Au) :   0.1739 B(  1-Au, 10-Au) :   0.1872 B(  1-Au, 13-Au) :   0.1836
B(  1-Au, 14-Fe) :   0.5001 B(  2-Au,  3-Au) :   0.2495 B(  2-Au,  4-Au) :   0.3005
B(  2-Au,  7-Au) :   0.2501 B(  3-Au,  7-Au) :   0.2571 B(  3-Au,  8-Au) :   0.2871
B(  3-Au, 10-Au) :   0.3464 B(  3-Au, 14-Fe) :   0.1351 B(  4-Au,  5-Au) :   0.1703
B(  4-Au,  6-Au) :   0.1877 B(  4-Au,  7-Au) :   0.2699 B(  4-Au, 14-Fe) :   0.5007
B(  5-Au, 12-Au) :   0.2147 B(  5-Au, 13-Au) :   0.1685 B(  5-Au, 14-Fe) :   0.4368
B(  6-Au,  7-Au) :   0.3446 B(  6-Au,  8-Au) :   0.1945 B(  6-Au, 11-Au) :   0.2078
B(  6-Au, 14-Fe) :   0.4762 B(  7-Au,  8-Au) :   0.2891 B(  7-Au, 14-Fe) :   0.1361
B(  8-Au, 10-Au) :   0.1948 B(  8-Au, 14-Fe) :   0.5149 B(  9-Au, 10-Au) :   0.2078
B(  9-Au, 11-Au) :   0.2558 B(  9-Au, 12-Au) :   0.1278 B(  9-Au, 13-Au) :   0.1544
B(  9-Au, 14-Fe) :   0.5014 B( 10-Au, 13-Au) :   0.1798 B( 10-Au, 14-Fe) :   0.4726
B( 11-Au, 12-Au) :   0.1349 B( 11-Au, 14-Fe) :   0.4952 B( 12-Au, 13-Au) :   0.2081
B( 12-Au, 14-Fe) :   0.4391 B( 13-Au, 14-Fe) :   0.4773

FINAL SINGLE POINT ENERGY     -3165.062650035919

DIPOLE MOMENT
-------------
                                X             Y             Z
Electronic contribution:    -21.46813       2.45883     -12.71499
Nuclear contribution   :     21.63164      -2.46525      12.99218
                        -----------------------------------------
Total Dipole Moment    :      0.16350      -0.00642       0.27719
                        -----------------------------------------
Magnitude (a.u.)       :      0.32188
Magnitude (Debye)      :      0.81816

Rotational constants in cm-1:     0.001317     0.000964     0.000921
Rotational constants in MHz :    39.475956    28.890274    27.599067

                             ****ORCA TERMINATED NORMALLY****
TOTAL RUN TIME: 0 days 5 hours 0 minutes 51 seconds 768 msec
