                         Program Version 5.0.3 -  RELEASE  -
|  1> !RI-B2PLYP def2-TZVP def2-TZVP/C
|  2> !RIJCOSX VERYSLOWCONV
|  3>
|  4> %scf
|  5>   AutoTRAHIter 200
|  6>   maxiter 400
|  7> end
|  8>
|  9>
| 10> %pal nprocs 6 end
| 11>
| 12> *xyzfile 0 6 pbe.xyz
| 13>
| 14> $new_job
| 15>
| 16> !RI-B2PLYP def2-TZVP def2-TZVP/C
| 17> !RIJCOSX VERYSLOWCONV
| 18>
| 19> %scf
| 20>   AutoTRAHIter 200
| 21>   maxiter 400
| 22> end
| 23>
| 24>
| 25> %pal nprocs 6 end
| 26>
| 27> *xyzfile 0 4 pbe.xyz
| 28>
| 29>
| 30>
| 31>
| 32>
| 33>                          ****END OF INPUT****
 Total Charge           Charge          ....    0
 Multiplicity           Mult            ....    6
 Number of Electrons    NEL             ....  291
MP2 TOTAL ENERGY:    -3049.076214213 Eh
FINAL SINGLE POINT ENERGY     -3049.076214212627

CARTESIAN COORDINATES (ANGSTROEM)
---------------------------------
  Au     8.963775    7.891973    5.125718
  Au     8.003762    9.800369    8.814112
  Au    10.480669    9.278982    7.066257
  Au     7.963895    7.464339   10.499594
  Au    10.292449    8.830323    9.783521
  Au    10.966056    6.580372    6.598949
  Au     8.124140   10.418069    6.114676
  Au     6.364840    8.168778    6.067024
  Au     9.321767    4.617403    7.692820
  Au     7.480174    5.670790    5.939265
  Au     4.925555    5.975724    7.059766
  Au     5.733704    7.893480    8.890828
  Au     6.973389    5.391918    8.920886
  Au     5.638581   10.373879    7.618271
  Mn     8.681719    7.295628    7.856414

 Multiplicity           Mult            ....    4
 Number of Electrons    NEL             ....  291
 Basis Dimension        Dim             ....  605

ORBITAL ENERGIES
----------------
                 SPIN UP ORBITALS
  NO   OCC          E(Eh)            E(eV)
   0   1.0000    -237.632489     -6466.3088
   1   1.0000     -28.133565      -765.5532
   2   1.0000     -24.052035      -654.4892
   3   1.0000     -24.051158      -654.4653
   4   1.0000     -24.050877      -654.4576
   5   1.0000      -4.407996      -119.9477
   6   1.0000      -4.405871      -119.8898
   7   1.0000      -4.404851      -119.8621
   8   1.0000      -4.403628      -119.8288
   9   1.0000      -4.402690      -119.8033
  10   1.0000      -4.402472      -119.7973
  11   1.0000      -4.397644      -119.6660
  12   1.0000      -4.396841      -119.6441
  13   1.0000      -4.396276      -119.6288
  14   1.0000      -4.392865      -119.5359
  15   1.0000      -4.390402      -119.4689
  16   1.0000      -4.389304      -119.4390
  17   1.0000      -4.389281      -119.4384
  18   1.0000      -4.386764      -119.3699
  19   1.0000      -3.612275       -98.2950
  20   1.0000      -2.528645       -68.8079
  21   1.0000      -2.526330       -68.7449
  22   1.0000      -2.525071       -68.7107
  23   1.0000      -2.525012       -68.7091
  24   1.0000      -2.524336       -68.6907
  25   1.0000      -2.523905       -68.6790
  26   1.0000      -2.523303       -68.6626
  27   1.0000      -2.523052       -68.6557
  28   1.0000      -2.522106       -68.6300
  29   1.0000      -2.521940       -68.6255
  30   1.0000      -2.521541       -68.6146
  31   1.0000      -2.521242       -68.6065
  32   1.0000      -2.520486       -68.5859
  33   1.0000      -2.520041       -68.5738
  34   1.0000      -2.519267       -68.5527
  35   1.0000      -2.519025       -68.5461
  36   1.0000      -2.518028       -68.5190
  37   1.0000      -2.517650       -68.5087
  38   1.0000      -2.516735       -68.4839
  39   1.0000      -2.515738       -68.4567
  40   1.0000      -2.515050       -68.4380
  41   1.0000      -2.514312       -68.4179
  42   1.0000      -2.513952       -68.4081
  43   1.0000      -2.513443       -68.3943
  44   1.0000      -2.512669       -68.3732
  45   1.0000      -2.512557       -68.3702
  46   1.0000      -2.512276       -68.3625
  47   1.0000      -2.511040       -68.3289
  48   1.0000      -2.510311       -68.3090
  49   1.0000      -2.509034       -68.2743
  50   1.0000      -2.508600       -68.2625
  51   1.0000      -2.507853       -68.2421
  52   1.0000      -2.506852       -68.2149
  53   1.0000      -2.506700       -68.2108
  54   1.0000      -2.505433       -68.1763
  55   1.0000      -2.505282       -68.1722
  56   1.0000      -2.505176       -68.1693
  57   1.0000      -2.505034       -68.1654
  58   1.0000      -2.503354       -68.1197
  59   1.0000      -2.503242       -68.1167
  60   1.0000      -2.502695       -68.1018
  61   1.0000      -2.502486       -68.0961
  62   1.0000      -2.414614       -65.7050
  63   1.0000      -2.413920       -65.6861
  64   1.0000      -2.413397       -65.6719
  65   1.0000      -0.523233       -14.2379
  66   1.0000      -0.518826       -14.1180
  67   1.0000      -0.517109       -14.0713
  68   1.0000      -0.515220       -14.0198
  69   1.0000      -0.512464       -13.9449
  70   1.0000      -0.498850       -13.5744
  71   1.0000      -0.474916       -12.9231
  72   1.0000      -0.467991       -12.7347
  73   1.0000      -0.467218       -12.7137
  74   1.0000      -0.463715       -12.6183
  75   1.0000      -0.462638       -12.5890
  76   1.0000      -0.459474       -12.5029
  77   1.0000      -0.458532       -12.4773
  78   1.0000      -0.457229       -12.4418
  79   1.0000      -0.456616       -12.4252
  80   1.0000      -0.452477       -12.3125
  81   1.0000      -0.450216       -12.2510
  82   1.0000      -0.449334       -12.2270
  83   1.0000      -0.446604       -12.1527
  84   1.0000      -0.445103       -12.1119
  85   1.0000      -0.440908       -11.9977
  86   1.0000      -0.440232       -11.9793
  87   1.0000      -0.439111       -11.9488
  88   1.0000      -0.435661       -11.8549
  89   1.0000      -0.434209       -11.8154
  90   1.0000      -0.431356       -11.7378
  91   1.0000      -0.428893       -11.6708
  92   1.0000      -0.425409       -11.5760
  93   1.0000      -0.424512       -11.5516
  94   1.0000      -0.420061       -11.4304
  95   1.0000      -0.418854       -11.3976
  96   1.0000      -0.417351       -11.3567
  97   1.0000      -0.415943       -11.3184
  98   1.0000      -0.413807       -11.2603
  99   1.0000      -0.409845       -11.1525
 100   1.0000      -0.407480       -11.0881
 101   1.0000      -0.405417       -11.0319
 102   1.0000      -0.401892       -10.9360
 103   1.0000      -0.392081       -10.6691
 104   1.0000      -0.391554       -10.6547
 105   1.0000      -0.384836       -10.4719
 106   1.0000      -0.384092       -10.4517
 107   1.0000      -0.381930       -10.3928
 108   1.0000      -0.380762       -10.3611
 109   1.0000      -0.379813       -10.3352
 110   1.0000      -0.377198       -10.2641
 111   1.0000      -0.376803       -10.2533
 112   1.0000      -0.374506       -10.1908
 113   1.0000      -0.372205       -10.1282
 114   1.0000      -0.370248       -10.0750
 115   1.0000      -0.369419       -10.0524
 116   1.0000      -0.368472       -10.0266
 117   1.0000      -0.367741       -10.0068
 118   1.0000      -0.366312        -9.9679
 119   1.0000      -0.364275        -9.9124
 120   1.0000      -0.363773        -9.8988
 121   1.0000      -0.362280        -9.8581
 122   1.0000      -0.361973        -9.8498
 123   1.0000      -0.360304        -9.8044
 124   1.0000      -0.357377        -9.7247
 125   1.0000      -0.356513        -9.7012
 126   1.0000      -0.351547        -9.5661
 127   1.0000      -0.351206        -9.5568
 128   1.0000      -0.349477        -9.5098
 129   1.0000      -0.349130        -9.5003
 130   1.0000      -0.347918        -9.4673
 131   1.0000      -0.346864        -9.4387
 132   1.0000      -0.345703        -9.4071
 133   1.0000      -0.344327        -9.3696
 134   1.0000      -0.343470        -9.3463
 135   1.0000      -0.338626        -9.2145
 136   1.0000      -0.336139        -9.1468
 137   1.0000      -0.334719        -9.1082
 138   1.0000      -0.328008        -8.9256
 139   1.0000      -0.320246        -8.7143
 140   1.0000      -0.318586        -8.6692
 141   1.0000      -0.316159        -8.6031
 142   1.0000      -0.313651        -8.5349
 143   1.0000      -0.301651        -8.2083
 144   1.0000      -0.244937        -6.6651
 145   1.0000      -0.218747        -5.9524
 146   1.0000      -0.217251        -5.9117
 147   0.0000      -0.136832        -3.7234
 148   0.0000      -0.095932        -2.6104
 149   0.0000      -0.086236        -2.3466
 150   0.0000      -0.070465        -1.9175
 151   0.0000      -0.060034        -1.6336

                 SPIN DOWN ORBITALS
  NO   OCC          E(Eh)            E(eV)
   0   1.0000    -237.630472     -6466.2539
   1   1.0000     -28.031971      -762.7887
   2   1.0000     -23.958393      -651.9410
   3   1.0000     -23.958061      -651.9320
   4   1.0000     -23.957774      -651.9242
   5   1.0000      -4.408745      -119.9680
   6   1.0000      -4.407509      -119.9344
   7   1.0000      -4.404901      -119.8635
   8   1.0000      -4.403831      -119.8343
   9   1.0000      -4.402731      -119.8044
  10   1.0000      -4.402501      -119.7981
  11   1.0000      -4.397719      -119.6680
  12   1.0000      -4.397683      -119.6670
  13   1.0000      -4.397120      -119.6517
  14   1.0000      -4.392886      -119.5365
  15   1.0000      -4.391977      -119.5118
  16   1.0000      -4.390634      -119.4752
  17   1.0000      -4.388880      -119.4275
  18   1.0000      -4.387729      -119.3962
  19   1.0000      -3.326597       -90.5213
  20   1.0000      -2.529212       -68.8233
  21   1.0000      -2.527489       -68.7765
  22   1.0000      -2.526115       -68.7391
  23   1.0000      -2.524611       -68.6982
  24   1.0000      -2.524022       -68.6821
  25   1.0000      -2.523768       -68.6752
  26   1.0000      -2.523208       -68.6600
  27   1.0000      -2.522696       -68.6460
  28   1.0000      -2.521997       -68.6270
  29   1.0000      -2.521584       -68.6158
  30   1.0000      -2.521134       -68.6035
  31   1.0000      -2.520807       -68.5946
  32   1.0000      -2.520076       -68.5747
  33   1.0000      -2.519664       -68.5635
  34   1.0000      -2.519376       -68.5557
  35   1.0000      -2.518776       -68.5394
  36   1.0000      -2.518043       -68.5194
  37   1.0000      -2.517241       -68.4976
  38   1.0000      -2.516830       -68.4864
  39   1.0000      -2.515735       -68.4566
  40   1.0000      -2.515675       -68.4550
  41   1.0000      -2.515181       -68.4416
  42   1.0000      -2.514589       -68.4254
  43   1.0000      -2.513819       -68.4045
  44   1.0000      -2.513440       -68.3942
  45   1.0000      -2.512544       -68.3698
  46   1.0000      -2.511898       -68.3522
  47   1.0000      -2.511326       -68.3367
  48   1.0000      -2.511039       -68.3288
  49   1.0000      -2.510006       -68.3007
  50   1.0000      -2.509660       -68.2913
  51   1.0000      -2.508032       -68.2470
  52   1.0000      -2.507808       -68.2409
  53   1.0000      -2.507521       -68.2331
  54   1.0000      -2.506947       -68.2175
  55   1.0000      -2.506681       -68.2103
  56   1.0000      -2.506338       -68.2009
  57   1.0000      -2.504616       -68.1541
  58   1.0000      -2.504417       -68.1487
  59   1.0000      -2.503997       -68.1372
  60   1.0000      -2.503407       -68.1212
  61   1.0000      -2.502475       -68.0958
  62   1.0000      -2.087513       -56.8041
  63   1.0000      -2.086825       -56.7854
  64   1.0000      -2.086494       -56.7764
  65   1.0000      -0.504258       -13.7216
  66   1.0000      -0.481324       -13.0975
  67   1.0000      -0.475993       -12.9524
  68   1.0000      -0.472790       -12.8653
  69   1.0000      -0.470578       -12.8051
  70   1.0000      -0.467588       -12.7237
  71   1.0000      -0.467167       -12.7123
  72   1.0000      -0.465296       -12.6614
  73   1.0000      -0.461305       -12.5527
  74   1.0000      -0.460600       -12.5336
  75   1.0000      -0.459722       -12.5097
  76   1.0000      -0.458971       -12.4892
  77   1.0000      -0.455831       -12.4038
  78   1.0000      -0.452464       -12.3122
  79   1.0000      -0.451165       -12.2768
  80   1.0000      -0.449488       -12.2312
  81   1.0000      -0.446185       -12.1413
  82   1.0000      -0.441507       -12.0140
  83   1.0000      -0.441162       -12.0046
  84   1.0000      -0.437721       -11.9110
  85   1.0000      -0.435950       -11.8628
  86   1.0000      -0.432963       -11.7815
  87   1.0000      -0.431049       -11.7294
  88   1.0000      -0.428998       -11.6736
  89   1.0000      -0.426403       -11.6030
  90   1.0000      -0.423637       -11.5277
  91   1.0000      -0.420292       -11.4367
  92   1.0000      -0.418156       -11.3786
  93   1.0000      -0.416332       -11.3290
  94   1.0000      -0.413148       -11.2423
  95   1.0000      -0.411158       -11.1882
  96   1.0000      -0.409512       -11.1434
  97   1.0000      -0.405230       -11.0269
  98   1.0000      -0.396323       -10.7845
  99   1.0000      -0.395390       -10.7591
 100   1.0000      -0.393043       -10.6952
 101   1.0000      -0.389277       -10.5928
 102   1.0000      -0.388304       -10.5663
 103   1.0000      -0.385895       -10.5007
 104   1.0000      -0.383612       -10.4386
 105   1.0000      -0.383069       -10.4238
 106   1.0000      -0.380680       -10.3588
 107   1.0000      -0.379733       -10.3330
 108   1.0000      -0.375661       -10.2223
 109   1.0000      -0.374136       -10.1808
 110   1.0000      -0.372521       -10.1368
 111   1.0000      -0.371650       -10.1131
 112   1.0000      -0.370762       -10.0889
 113   1.0000      -0.370401       -10.0791
 114   1.0000      -0.367499       -10.0002
 115   1.0000      -0.366739        -9.9795
 116   1.0000      -0.365924        -9.9573
 117   1.0000      -0.363522        -9.8919
 118   1.0000      -0.361789        -9.8448
 119   1.0000      -0.359238        -9.7754
 120   1.0000      -0.358750        -9.7621
 121   1.0000      -0.354535        -9.6474
 122   1.0000      -0.353482        -9.6187
 123   1.0000      -0.352663        -9.5965
 124   1.0000      -0.350954        -9.5499
 125   1.0000      -0.350287        -9.5318
 126   1.0000      -0.349213        -9.5026
 127   1.0000      -0.347958        -9.4684
 128   1.0000      -0.346613        -9.4318
 129   1.0000      -0.345564        -9.4033
 130   1.0000      -0.340036        -9.2528
 131   1.0000      -0.339040        -9.2258
 132   1.0000      -0.337184        -9.1752
 133   1.0000      -0.332317        -9.0428
 134   1.0000      -0.327125        -8.9015
 135   1.0000      -0.322328        -8.7710
 136   1.0000      -0.320239        -8.7142
 137   1.0000      -0.319661        -8.6984
 138   1.0000      -0.314348        -8.5539
 139   1.0000      -0.252860        -6.8807
 140   1.0000      -0.232068        -6.3149
 141   1.0000      -0.230593        -6.2747
 142   1.0000      -0.225693        -6.1414
 143   1.0000      -0.183388        -4.9903
 144   0.0000      -0.090210        -2.4547
 145   0.0000      -0.082774        -2.2524
 146   0.0000      -0.063377        -1.7246
 147   0.0000      -0.051923        -1.4129
 148   0.0000      -0.050765        -1.3814

MULLIKEN ATOMIC CHARGES AND SPIN POPULATIONS
--------------------------------------------
   0 Au:    0.157147   -0.049146
   1 Au:   -0.487046   -0.120364
   2 Au:    0.207888   -0.165801
   3 Au:    0.254468   -0.146600
   4 Au:    0.313761   -0.180443
   5 Au:    0.203850   -0.018349
   6 Au:    0.291237   -0.226761
   7 Au:   -0.493178   -0.259623
   8 Au:    0.255660   -0.046932
   9 Au:    0.073441   -0.108352
  10 Au:    0.340464   -0.006068
  11 Au:   -0.119462    0.017954
  12 Au:    0.206028   -0.228827
  13 Au:    0.472453   -0.031489
  14 Mn:   -1.676710    4.570802
Sum of atomic charges         :   -0.0000000

LOEWDIN ATOMIC CHARGES AND SPIN POPULATIONS
-------------------------------------------
   0 Au:    0.018486   -0.090335
   1 Au:   -0.102744   -0.124874
   2 Au:   -0.009989   -0.114477
   3 Au:    0.060426   -0.139451
   4 Au:    0.086079   -0.182364
   5 Au:    0.041617   -0.046038
   6 Au:    0.048512   -0.184883
   7 Au:   -0.126288   -0.154235
   8 Au:    0.088187   -0.105971
   9 Au:   -0.010732   -0.100669
  10 Au:    0.108411   -0.039401
  11 Au:   -0.086498   -0.031235
  12 Au:   -0.019214   -0.131102
  13 Au:    0.116904   -0.107226
  14 Mn:   -0.213158    4.552260

  Mayer bond orders larger than 0.100000
B(  0-Au,  2-Au) :   0.1584 B(  0-Au,  5-Au) :   0.1516 B(  0-Au,  6-Au) :   0.2278
B(  0-Au,  7-Au) :   0.2945 B(  0-Au,  9-Au) :   0.1576 B(  0-Au, 14-Mn) :   0.3912
B(  1-Au,  2-Au) :   0.1431 B(  1-Au,  4-Au) :   0.4057 B(  1-Au,  6-Au) :   0.2117
B(  1-Au,  7-Au) :   0.1161 B(  1-Au, 11-Au) :   0.1967 B(  1-Au, 13-Au) :   0.3462
B(  1-Au, 14-Mn) :   0.4732 B(  2-Au,  4-Au) :   0.1914 B(  2-Au,  5-Au) :   0.2562
B(  2-Au,  6-Au) :   0.2303 B(  2-Au, 14-Mn) :   0.3614 B(  3-Au,  4-Au) :   0.1656
B(  3-Au, 11-Au) :   0.2104 B(  3-Au, 12-Au) :   0.2347 B(  3-Au, 14-Mn) :   0.4478
B(  4-Au, 14-Mn) :   0.2823 B(  5-Au,  8-Au) :   0.1927 B(  5-Au, 14-Mn) :   0.4747
B(  6-Au,  7-Au) :   0.3082 B(  6-Au, 13-Au) :   0.1278 B(  6-Au, 14-Mn) :   0.1308
B(  7-Au,  9-Au) :   0.2927 B(  7-Au, 10-Au) :   0.3436 B(  7-Au, 11-Au) :   0.2464
B(  7-Au, 13-Au) :   0.2882 B(  7-Au, 14-Mn) :   0.2625 B(  8-Au,  9-Au) :   0.2163
B(  8-Au, 12-Au) :   0.1863 B(  8-Au, 14-Mn) :   0.4173 B(  9-Au, 10-Au) :   0.2386
B(  9-Au, 12-Au) :   0.1089 B(  9-Au, 14-Mn) :   0.4049 B( 10-Au, 11-Au) :   0.2535
B( 10-Au, 12-Au) :   0.1841 B( 11-Au, 12-Au) :   0.2676 B( 11-Au, 13-Au) :   0.2131
B( 11-Au, 14-Mn) :   0.2685 B( 12-Au, 14-Mn) :   0.3999

MP2 TOTAL ENERGY:    -3049.045926733 Eh
FINAL SINGLE POINT ENERGY     -3049.045926733284

DIPOLE MOMENT
-------------
                                X             Y             Z
Electronic contribution:    -26.91110      16.22447      -9.93747
Nuclear contribution   :     26.88379     -16.21063       9.90247
                        -----------------------------------------
Total Dipole Moment    :     -0.02730       0.01385      -0.03500
                        -----------------------------------------
Magnitude (a.u.)       :      0.04650
Magnitude (Debye)      :      0.11819

Rotational constants in cm-1:     0.001085     0.001061     0.000915
Rotational constants in MHz :    32.527920    31.815017    27.423815

                             ****ORCA TERMINATED NORMALLY****
TOTAL RUN TIME: 0 days 1 hours 5 minutes 49 seconds 64 msec
