                         Program Version 5.0.3 -  RELEASE  -
|  1> !PBE def2-TZVP VERYSLOWCONV
|  2> !KDIIS
|  3>
|  4> %scf
|  5>   AutoTRAHIter 200
|  6>   maxiter 400
|  7> end
|  8>
|  9>
| 10> %pal nprocs 6 end
| 11>
| 12> *xyzfile 0 6 pbe.xyz
| 13>
| 14> $new_job
| 15>
| 16> !PBE def2-TZVP VERYSLOWCONV
| 17> !KDIIS
| 18>
| 19> %scf
| 20>   AutoTRAHIter 200
| 21>   maxiter 400
| 22> end
| 23>
| 24>
| 25> %pal nprocs 6 end
| 26>
| 27> *xyzfile 0 4 pbe.xyz
| 28>
| 29>
| 30>
| 31>
| 32>
| 33>                          ****END OF INPUT****
 Total Charge           Charge          ....    0
 Multiplicity           Mult            ....    6
 Number of Electrons    NEL             ....  291
FINAL SINGLE POINT ENERGY     -3052.372316138740

CARTESIAN COORDINATES (ANGSTROEM)
---------------------------------
  Au     8.963775    7.891973    5.125718
  Au     8.003762    9.800369    8.814112
  Au    10.480669    9.278982    7.066257
  Au     7.963895    7.464339   10.499594
  Au    10.292449    8.830323    9.783521
  Au    10.966056    6.580372    6.598949
  Au     8.124140   10.418069    6.114676
  Au     6.364840    8.168778    6.067024
  Au     9.321767    4.617403    7.692820
  Au     7.480174    5.670790    5.939265
  Au     4.925555    5.975724    7.059766
  Au     5.733704    7.893480    8.890828
  Au     6.973389    5.391918    8.920886
  Au     5.638581   10.373879    7.618271
  Mn     8.681719    7.295628    7.856414

 Multiplicity           Mult            ....    4
 Number of Electrons    NEL             ....  291
 Basis Dimension        Dim             ....  605

ORBITAL ENERGIES
----------------
                 SPIN UP ORBITALS
  NO   OCC          E(Eh)            E(eV)
   0   1.0000    -234.206708     -6373.0885
   1   1.0000     -26.900034      -731.9871
   2   1.0000     -23.049111      -627.1982
   3   1.0000     -23.048924      -627.1931
   4   1.0000     -23.047494      -627.1542
   5   1.0000      -4.038319      -109.8882
   6   1.0000      -4.037531      -109.8668
   7   1.0000      -4.033270      -109.7509
   8   1.0000      -4.032774      -109.7374
   9   1.0000      -4.032204      -109.7219
  10   1.0000      -4.031812      -109.7112
  11   1.0000      -4.028084      -109.6097
  12   1.0000      -4.026822      -109.5754
  13   1.0000      -4.024792      -109.5202
  14   1.0000      -4.021948      -109.4428
  15   1.0000      -4.021397      -109.4278
  16   1.0000      -4.019675      -109.3809
  17   1.0000      -4.018579      -109.3511
  18   1.0000      -4.017196      -109.3135
  19   1.0000      -3.110060       -84.6290
  20   1.0000      -2.255490       -61.3750
  21   1.0000      -2.253414       -61.3185
  22   1.0000      -2.251705       -61.2720
  23   1.0000      -2.249645       -61.2159
  24   1.0000      -2.248819       -61.1935
  25   1.0000      -2.248246       -61.1779
  26   1.0000      -2.247603       -61.1604
  27   1.0000      -2.247154       -61.1482
  28   1.0000      -2.246884       -61.1408
  29   1.0000      -2.246583       -61.1326
  30   1.0000      -2.246310       -61.1252
  31   1.0000      -2.245138       -61.0933
  32   1.0000      -2.244961       -61.0885
  33   1.0000      -2.244631       -61.0795
  34   1.0000      -2.244552       -61.0774
  35   1.0000      -2.244170       -61.0670
  36   1.0000      -2.243696       -61.0541
  37   1.0000      -2.242898       -61.0324
  38   1.0000      -2.242581       -61.0237
  39   1.0000      -2.242314       -61.0165
  40   1.0000      -2.241263       -60.9879
  41   1.0000      -2.239826       -60.9488
  42   1.0000      -2.238833       -60.9217
  43   1.0000      -2.238106       -60.9020
  44   1.0000      -2.237739       -60.8920
  45   1.0000      -2.236951       -60.8705
  46   1.0000      -2.236572       -60.8602
  47   1.0000      -2.236282       -60.8523
  48   1.0000      -2.236225       -60.8508
  49   1.0000      -2.235152       -60.8216
  50   1.0000      -2.235113       -60.8205
  51   1.0000      -2.234152       -60.7944
  52   1.0000      -2.234054       -60.7917
  53   1.0000      -2.233151       -60.7671
  54   1.0000      -2.232492       -60.7492
  55   1.0000      -2.232093       -60.7383
  56   1.0000      -2.231414       -60.7199
  57   1.0000      -2.230778       -60.7025
  58   1.0000      -2.229545       -60.6690
  59   1.0000      -2.228793       -60.6486
  60   1.0000      -2.228547       -60.6419
  61   1.0000      -2.227202       -60.6053
  62   1.0000      -2.013916       -54.8014
  63   1.0000      -2.013273       -54.7839
  64   1.0000      -2.010662       -54.7129
  65   1.0000      -0.431907       -11.7528
  66   1.0000      -0.392376       -10.6771
  67   1.0000      -0.389514       -10.5992
  68   1.0000      -0.386749       -10.5240
  69   1.0000      -0.376950       -10.2573
  70   1.0000      -0.372075       -10.1247
  71   1.0000      -0.367392        -9.9973
  72   1.0000      -0.366198        -9.9647
  73   1.0000      -0.365218        -9.9381
  74   1.0000      -0.361165        -9.8278
  75   1.0000      -0.359221        -9.7749
  76   1.0000      -0.357434        -9.7263
  77   1.0000      -0.355564        -9.6754
  78   1.0000      -0.351809        -9.5732
  79   1.0000      -0.348446        -9.4817
  80   1.0000      -0.345054        -9.3894
  81   1.0000      -0.344756        -9.3813
  82   1.0000      -0.341180        -9.2840
  83   1.0000      -0.339297        -9.2327
  84   1.0000      -0.337921        -9.1953
  85   1.0000      -0.335520        -9.1300
  86   1.0000      -0.334648        -9.1062
  87   1.0000      -0.332577        -9.0499
  88   1.0000      -0.329777        -8.9737
  89   1.0000      -0.328139        -8.9291
  90   1.0000      -0.325410        -8.8549
  91   1.0000      -0.321752        -8.7553
  92   1.0000      -0.317506        -8.6398
  93   1.0000      -0.315721        -8.5912
  94   1.0000      -0.314250        -8.5512
  95   1.0000      -0.313807        -8.5391
  96   1.0000      -0.312305        -8.4983
  97   1.0000      -0.309305        -8.4166
  98   1.0000      -0.307778        -8.3751
  99   1.0000      -0.302611        -8.2345
 100   1.0000      -0.299157        -8.1405
 101   1.0000      -0.298761        -8.1297
 102   1.0000      -0.295137        -8.0311
 103   1.0000      -0.293883        -7.9970
 104   1.0000      -0.290958        -7.9174
 105   1.0000      -0.289522        -7.8783
 106   1.0000      -0.286180        -7.7874
 107   1.0000      -0.284734        -7.7480
 108   1.0000      -0.282153        -7.6778
 109   1.0000      -0.280200        -7.6246
 110   1.0000      -0.278613        -7.5815
 111   1.0000      -0.276600        -7.5267
 112   1.0000      -0.275146        -7.4871
 113   1.0000      -0.274731        -7.4758
 114   1.0000      -0.272680        -7.4200
 115   1.0000      -0.270928        -7.3723
 116   1.0000      -0.270404        -7.3581
 117   1.0000      -0.268786        -7.3140
 118   1.0000      -0.267816        -7.2876
 119   1.0000      -0.266147        -7.2422
 120   1.0000      -0.265851        -7.2342
 121   1.0000      -0.262968        -7.1557
 122   1.0000      -0.261858        -7.1255
 123   1.0000      -0.261135        -7.1059
 124   1.0000      -0.259153        -7.0519
 125   1.0000      -0.257210        -6.9990
 126   1.0000      -0.256558        -6.9813
 127   1.0000      -0.256214        -6.9719
 128   1.0000      -0.255221        -6.9449
 129   1.0000      -0.254683        -6.9303
 130   1.0000      -0.252963        -6.8835
 131   1.0000      -0.251710        -6.8494
 132   1.0000      -0.250388        -6.8134
 133   1.0000      -0.249289        -6.7835
 134   1.0000      -0.247701        -6.7403
 135   1.0000      -0.247423        -6.7327
 136   1.0000      -0.246806        -6.7159
 137   1.0000      -0.245283        -6.6745
 138   1.0000      -0.244187        -6.6447
 139   1.0000      -0.243244        -6.6190
 140   1.0000      -0.240525        -6.5450
 141   1.0000      -0.240376        -6.5410
 142   1.0000      -0.235261        -6.4018
 143   1.0000      -0.232750        -6.3334
 144   1.0000      -0.217545        -5.9197
 145   1.0000      -0.200956        -5.4683
 146   1.0000      -0.198231        -5.3941
 147   0.0000      -0.196507        -5.3472
 148   0.0000      -0.162784        -4.4296
 149   0.0000      -0.148908        -4.0520
 150   0.0000      -0.139389        -3.7930
 151   0.0000      -0.126701        -3.4477

                 SPIN DOWN ORBITALS
  NO   OCC          E(Eh)            E(eV)
   0   1.0000    -234.206011     -6373.0696
   1   1.0000     -26.833629      -730.1802
   2   1.0000     -22.998943      -625.8331
   3   1.0000     -22.998136      -625.8111
   4   1.0000     -22.997195      -625.7855
   5   1.0000      -4.038335      -109.8887
   6   1.0000      -4.038245      -109.8862
   7   1.0000      -4.032927      -109.7415
   8   1.0000      -4.032731      -109.7362
   9   1.0000      -4.032207      -109.7219
  10   1.0000      -4.031560      -109.7043
  11   1.0000      -4.028307      -109.6158
  12   1.0000      -4.026705      -109.5722
  13   1.0000      -4.025852      -109.5490
  14   1.0000      -4.023331      -109.4804
  15   1.0000      -4.021288      -109.4248
  16   1.0000      -4.020441      -109.4018
  17   1.0000      -4.018161      -109.3397
  18   1.0000      -4.018039      -109.3364
  19   1.0000      -2.946962       -80.1909
  20   1.0000      -2.255525       -61.3760
  21   1.0000      -2.254414       -61.3457
  22   1.0000      -2.252755       -61.3006
  23   1.0000      -2.249250       -61.2052
  24   1.0000      -2.249213       -61.2042
  25   1.0000      -2.247732       -61.1639
  26   1.0000      -2.247336       -61.1531
  27   1.0000      -2.246982       -61.1435
  28   1.0000      -2.246919       -61.1418
  29   1.0000      -2.246728       -61.1366
  30   1.0000      -2.246181       -61.1217
  31   1.0000      -2.244989       -61.0892
  32   1.0000      -2.244877       -61.0862
  33   1.0000      -2.244535       -61.0769
  34   1.0000      -2.244288       -61.0702
  35   1.0000      -2.243891       -61.0594
  36   1.0000      -2.243747       -61.0555
  37   1.0000      -2.243119       -61.0384
  38   1.0000      -2.242704       -61.0271
  39   1.0000      -2.242271       -61.0153
  40   1.0000      -2.241056       -60.9822
  41   1.0000      -2.239869       -60.9499
  42   1.0000      -2.239768       -60.9472
  43   1.0000      -2.239000       -60.9263
  44   1.0000      -2.238501       -60.9127
  45   1.0000      -2.237805       -60.8938
  46   1.0000      -2.237469       -60.8846
  47   1.0000      -2.236536       -60.8592
  48   1.0000      -2.236481       -60.8578
  49   1.0000      -2.236248       -60.8514
  50   1.0000      -2.235051       -60.8188
  51   1.0000      -2.235012       -60.8178
  52   1.0000      -2.234759       -60.8109
  53   1.0000      -2.233524       -60.7773
  54   1.0000      -2.233374       -60.7732
  55   1.0000      -2.233191       -60.7682
  56   1.0000      -2.230903       -60.7060
  57   1.0000      -2.230612       -60.6980
  58   1.0000      -2.230543       -60.6962
  59   1.0000      -2.229517       -60.6682
  60   1.0000      -2.228885       -60.6510
  61   1.0000      -2.227133       -60.6034
  62   1.0000      -1.854381       -50.4603
  63   1.0000      -1.852770       -50.4164
  64   1.0000      -1.850246       -50.3477
  65   1.0000      -0.427849       -11.6424
  66   1.0000      -0.393148       -10.6981
  67   1.0000      -0.387175       -10.5356
  68   1.0000      -0.385377       -10.4866
  69   1.0000      -0.373066       -10.1516
  70   1.0000      -0.370074       -10.0702
  71   1.0000      -0.367094        -9.9891
  72   1.0000      -0.365391        -9.9428
  73   1.0000      -0.361372        -9.8334
  74   1.0000      -0.360753        -9.8166
  75   1.0000      -0.359127        -9.7723
  76   1.0000      -0.356864        -9.7108
  77   1.0000      -0.354090        -9.6353
  78   1.0000      -0.351278        -9.5588
  79   1.0000      -0.349064        -9.4985
  80   1.0000      -0.345261        -9.3950
  81   1.0000      -0.344066        -9.3625
  82   1.0000      -0.340435        -9.2637
  83   1.0000      -0.339624        -9.2416
  84   1.0000      -0.335204        -9.1214
  85   1.0000      -0.334230        -9.0948
  86   1.0000      -0.332952        -9.0601
  87   1.0000      -0.331592        -9.0231
  88   1.0000      -0.328588        -8.9413
  89   1.0000      -0.327879        -8.9220
  90   1.0000      -0.324006        -8.8167
  91   1.0000      -0.320970        -8.7340
  92   1.0000      -0.317600        -8.6423
  93   1.0000      -0.315966        -8.5979
  94   1.0000      -0.314093        -8.5469
  95   1.0000      -0.311729        -8.4826
  96   1.0000      -0.309594        -8.4245
  97   1.0000      -0.307033        -8.3548
  98   1.0000      -0.300514        -8.1774
  99   1.0000      -0.298705        -8.1282
 100   1.0000      -0.297606        -8.0983
 101   1.0000      -0.295229        -8.0336
 102   1.0000      -0.292706        -7.9649
 103   1.0000      -0.290983        -7.9180
 104   1.0000      -0.289551        -7.8791
 105   1.0000      -0.287314        -7.8182
 106   1.0000      -0.286860        -7.8059
 107   1.0000      -0.282959        -7.6997
 108   1.0000      -0.281801        -7.6682
 109   1.0000      -0.278716        -7.5842
 110   1.0000      -0.277234        -7.5439
 111   1.0000      -0.276136        -7.5140
 112   1.0000      -0.275837        -7.5059
 113   1.0000      -0.274249        -7.4627
 114   1.0000      -0.273236        -7.4351
 115   1.0000      -0.271409        -7.3854
 116   1.0000      -0.270460        -7.3596
 117   1.0000      -0.268716        -7.3121
 118   1.0000      -0.267009        -7.2657
 119   1.0000      -0.266312        -7.2467
 120   1.0000      -0.265205        -7.2166
 121   1.0000      -0.262563        -7.1447
 122   1.0000      -0.261250        -7.1090
 123   1.0000      -0.260674        -7.0933
 124   1.0000      -0.259650        -7.0654
 125   1.0000      -0.258057        -7.0221
 126   1.0000      -0.257111        -6.9963
 127   1.0000      -0.256655        -6.9839
 128   1.0000      -0.255169        -6.9435
 129   1.0000      -0.254848        -6.9348
 130   1.0000      -0.251623        -6.8470
 131   1.0000      -0.250113        -6.8059
 132   1.0000      -0.249239        -6.7821
 133   1.0000      -0.247678        -6.7397
 134   1.0000      -0.246891        -6.7182
 135   1.0000      -0.244698        -6.6586
 136   1.0000      -0.242952        -6.6111
 137   1.0000      -0.237075        -6.4511
 138   1.0000      -0.235108        -6.3976
 139   1.0000      -0.224266        -6.1026
 140   1.0000      -0.210343        -5.7237
 141   1.0000      -0.209669        -5.7054
 142   1.0000      -0.206147        -5.6096
 143   1.0000      -0.172231        -4.6866
 144   0.0000      -0.152506        -4.1499
 145   0.0000      -0.151886        -4.1330
 146   0.0000      -0.137272        -3.7354
 147   0.0000      -0.133149        -3.6232
 148   0.0000      -0.131808        -3.5867

MULLIKEN ATOMIC CHARGES AND SPIN POPULATIONS
--------------------------------------------
   0 Au:    0.196289   -0.048367
   1 Au:   -0.422038   -0.110530
   2 Au:    0.225539   -0.116267
   3 Au:    0.302444   -0.095727
   4 Au:    0.355163   -0.114679
   5 Au:    0.257234    0.024741
   6 Au:    0.269165   -0.149330
   7 Au:   -0.457888   -0.204568
   8 Au:    0.314439   -0.025028
   9 Au:    0.104590   -0.070084
  10 Au:    0.360872   -0.037878
  11 Au:   -0.113039    0.015158
  12 Au:    0.194384   -0.129207
  13 Au:    0.485512   -0.050713
  14 Mn:   -2.072667    4.112480
Sum of atomic charges         :   -0.0000000

LOEWDIN ATOMIC CHARGES AND SPIN POPULATIONS
-------------------------------------------
   0 Au:    0.037549   -0.060928
   1 Au:   -0.073703   -0.080621
   2 Au:    0.007888   -0.078108
   3 Au:    0.083067   -0.094668
   4 Au:    0.103812   -0.147043
   5 Au:    0.066207   -0.011873
   6 Au:    0.045172   -0.141762
   7 Au:   -0.088913   -0.116341
   8 Au:    0.101734   -0.073951
   9 Au:    0.009854   -0.067244
  10 Au:    0.099941   -0.057221
  11 Au:   -0.068683   -0.018271
  12 Au:    0.002948   -0.079331
  13 Au:    0.111337   -0.099252
  14 Mn:   -0.438210    4.126615

  Mayer bond orders larger than 0.100000
B(  0-Au,  2-Au) :   0.1861 B(  0-Au,  5-Au) :   0.1940 B(  0-Au,  6-Au) :   0.2621
B(  0-Au,  7-Au) :   0.2936 B(  0-Au,  9-Au) :   0.1861 B(  0-Au, 14-Mn) :   0.4050
B(  1-Au,  2-Au) :   0.1423 B(  1-Au,  3-Au) :   0.1270 B(  1-Au,  4-Au) :   0.4371
B(  1-Au,  6-Au) :   0.2565 B(  1-Au,  7-Au) :   0.1166 B(  1-Au, 11-Au) :   0.2004
B(  1-Au, 13-Au) :   0.3867 B(  1-Au, 14-Mn) :   0.5208 B(  2-Au,  4-Au) :   0.2337
B(  2-Au,  5-Au) :   0.2652 B(  2-Au,  6-Au) :   0.2794 B(  2-Au, 14-Mn) :   0.4034
B(  3-Au,  4-Au) :   0.2004 B(  3-Au, 11-Au) :   0.2362 B(  3-Au, 12-Au) :   0.2553
B(  3-Au, 14-Mn) :   0.4524 B(  4-Au, 14-Mn) :   0.3064 B(  5-Au,  8-Au) :   0.2372
B(  5-Au, 14-Mn) :   0.5056 B(  6-Au,  7-Au) :   0.3299 B(  6-Au, 13-Au) :   0.1621
B(  6-Au, 14-Mn) :   0.1437 B(  7-Au,  9-Au) :   0.3098 B(  7-Au, 10-Au) :   0.3619
B(  7-Au, 11-Au) :   0.2604 B(  7-Au, 13-Au) :   0.3011 B(  7-Au, 14-Mn) :   0.3385
B(  8-Au,  9-Au) :   0.2473 B(  8-Au, 12-Au) :   0.2201 B(  8-Au, 14-Mn) :   0.4284
B(  9-Au, 10-Au) :   0.2771 B(  9-Au, 12-Au) :   0.1260 B(  9-Au, 14-Mn) :   0.4428
B( 10-Au, 11-Au) :   0.2839 B( 10-Au, 12-Au) :   0.2334 B( 11-Au, 12-Au) :   0.2828
B( 11-Au, 13-Au) :   0.2571 B( 11-Au, 14-Mn) :   0.2869 B( 12-Au, 14-Mn) :   0.4472

FINAL SINGLE POINT ENERGY     -3052.348532480004

DIPOLE MOMENT
-------------
                                X             Y             Z
Electronic contribution:    -26.97449      16.27109      -9.94135
Nuclear contribution   :     26.88379     -16.21063       9.90247
                        -----------------------------------------
Total Dipole Moment    :     -0.09069       0.06046      -0.03887
                        -----------------------------------------
Magnitude (a.u.)       :      0.11572
Magnitude (Debye)      :      0.29415

Rotational constants in cm-1:     0.001085     0.001061     0.000915
Rotational constants in MHz :    32.527920    31.815017    27.423815

                             ****ORCA TERMINATED NORMALLY****
TOTAL RUN TIME: 0 days 0 hours 9 minutes 8 seconds 227 msec
