                         Program Version 5.0.3 -  RELEASE  -
|  1> !R2SCAN def2-TZVP VERYSLOWCONV
|  2> !KDIIS
|  3> %scf
|  4>   AutoTRAHIter 200
|  5>   maxiter 400
|  6> end
|  7>
|  8> %pal nprocs 6 end
|  9>
| 10> *xyzfile 0 6 pbe.xyz
| 11>
| 12> $new_job
| 13>
| 14> !R2SCAN def2-TZVP VERYSLOWCONV
| 15> !KDIIS
| 16> %scf
| 17>   AutoTRAHIter 200
| 18>   maxiter 400
| 19> end
| 20>
| 21>
| 22> %pal nprocs 6 end
| 23>
| 24> *xyzfile 0 4 pbe.xyz
| 25>
| 26>
| 27>
| 28>
| 29>
| 30>                          ****END OF INPUT****
 Total Charge           Charge          ....    0
 Multiplicity           Mult            ....    6
 Number of Electrons    NEL             ....  291
FINAL SINGLE POINT ENERGY     -3052.872807380555

CARTESIAN COORDINATES (ANGSTROEM)
---------------------------------
  Au     8.963775    7.891973    5.125718
  Au     8.003762    9.800369    8.814112
  Au    10.480669    9.278982    7.066257
  Au     7.963895    7.464339   10.499594
  Au    10.292449    8.830323    9.783521
  Au    10.966056    6.580372    6.598949
  Au     8.124140   10.418069    6.114676
  Au     6.364840    8.168778    6.067024
  Au     9.321767    4.617403    7.692820
  Au     7.480174    5.670790    5.939265
  Au     4.925555    5.975724    7.059766
  Au     5.733704    7.893480    8.890828
  Au     6.973389    5.391918    8.920886
  Au     5.638581   10.373879    7.618271
  Mn     8.681719    7.295628    7.856414

 Multiplicity           Mult            ....    4
 Number of Electrons    NEL             ....  291
 Basis Dimension        Dim             ....  605

ORBITAL ENERGIES
----------------
                 SPIN UP ORBITALS
  NO   OCC          E(Eh)            E(eV)
   0   1.0000    -235.050509     -6396.0495
   1   1.0000     -27.227898      -740.9088
   2   1.0000     -23.275367      -633.3549
   3   1.0000     -23.274584      -633.3336
   4   1.0000     -23.273674      -633.3089
   5   1.0000      -4.129056      -112.3573
   6   1.0000      -4.128157      -112.3329
   7   1.0000      -4.124270      -112.2271
   8   1.0000      -4.123532      -112.2070
   9   1.0000      -4.123225      -112.1986
  10   1.0000      -4.122861      -112.1887
  11   1.0000      -4.118583      -112.0723
  12   1.0000      -4.117770      -112.0502
  13   1.0000      -4.115256      -111.9818
  14   1.0000      -4.112752      -111.9137
  15   1.0000      -4.112310      -111.9016
  16   1.0000      -4.110772      -111.8598
  17   1.0000      -4.109808      -111.8336
  18   1.0000      -4.107806      -111.7791
  19   1.0000      -3.250882       -88.4610
  20   1.0000      -2.318720       -63.0956
  21   1.0000      -2.316728       -63.0414
  22   1.0000      -2.315060       -62.9960
  23   1.0000      -2.313477       -62.9529
  24   1.0000      -2.312372       -62.9229
  25   1.0000      -2.312235       -62.9191
  26   1.0000      -2.311459       -62.8980
  27   1.0000      -2.310980       -62.8850
  28   1.0000      -2.310757       -62.8789
  29   1.0000      -2.310314       -62.8668
  30   1.0000      -2.310125       -62.8617
  31   1.0000      -2.309034       -62.8320
  32   1.0000      -2.308691       -62.8227
  33   1.0000      -2.308388       -62.8144
  34   1.0000      -2.308296       -62.8119
  35   1.0000      -2.307969       -62.8030
  36   1.0000      -2.307369       -62.7867
  37   1.0000      -2.306461       -62.7620
  38   1.0000      -2.306197       -62.7548
  39   1.0000      -2.305766       -62.7431
  40   1.0000      -2.304817       -62.7173
  41   1.0000      -2.303343       -62.6771
  42   1.0000      -2.302098       -62.6433
  43   1.0000      -2.301653       -62.6312
  44   1.0000      -2.301125       -62.6168
  45   1.0000      -2.301041       -62.6145
  46   1.0000      -2.299997       -62.5861
  47   1.0000      -2.299686       -62.5776
  48   1.0000      -2.299389       -62.5696
  49   1.0000      -2.299123       -62.5623
  50   1.0000      -2.298700       -62.5508
  51   1.0000      -2.298158       -62.5361
  52   1.0000      -2.297215       -62.5104
  53   1.0000      -2.296134       -62.4810
  54   1.0000      -2.296084       -62.4796
  55   1.0000      -2.295340       -62.4594
  56   1.0000      -2.295126       -62.4535
  57   1.0000      -2.294931       -62.4482
  58   1.0000      -2.292924       -62.3936
  59   1.0000      -2.292528       -62.3829
  60   1.0000      -2.292194       -62.3738
  61   1.0000      -2.291223       -62.3474
  62   1.0000      -2.108829       -57.3842
  63   1.0000      -2.107640       -57.3518
  64   1.0000      -2.105698       -57.2990
  65   1.0000      -0.437154       -11.8956
  66   1.0000      -0.398932       -10.8555
  67   1.0000      -0.396549       -10.7906
  68   1.0000      -0.393399       -10.7049
  69   1.0000      -0.387615       -10.5475
  70   1.0000      -0.383107       -10.4249
  71   1.0000      -0.376466       -10.2442
  72   1.0000      -0.375728       -10.2241
  73   1.0000      -0.375173       -10.2090
  74   1.0000      -0.370249       -10.0750
  75   1.0000      -0.368771       -10.0348
  76   1.0000      -0.367041        -9.9877
  77   1.0000      -0.365494        -9.9456
  78   1.0000      -0.361208        -9.8290
  79   1.0000      -0.358048        -9.7430
  80   1.0000      -0.354935        -9.6583
  81   1.0000      -0.354491        -9.6462
  82   1.0000      -0.351033        -9.5521
  83   1.0000      -0.349437        -9.5087
  84   1.0000      -0.347905        -9.4670
  85   1.0000      -0.345984        -9.4147
  86   1.0000      -0.344644        -9.3782
  87   1.0000      -0.341921        -9.3041
  88   1.0000      -0.340349        -9.2614
  89   1.0000      -0.337502        -9.1839
  90   1.0000      -0.335136        -9.1195
  91   1.0000      -0.331305        -9.0153
  92   1.0000      -0.327410        -8.9093
  93   1.0000      -0.325357        -8.8534
  94   1.0000      -0.324503        -8.8302
  95   1.0000      -0.323990        -8.8162
  96   1.0000      -0.322052        -8.7635
  97   1.0000      -0.320287        -8.7155
  98   1.0000      -0.317026        -8.6267
  99   1.0000      -0.313400        -8.5280
 100   1.0000      -0.310440        -8.4475
 101   1.0000      -0.309292        -8.4163
 102   1.0000      -0.305890        -8.3237
 103   1.0000      -0.302396        -8.2286
 104   1.0000      -0.301036        -8.1916
 105   1.0000      -0.298717        -8.1285
 106   1.0000      -0.294612        -8.0168
 107   1.0000      -0.292970        -7.9721
 108   1.0000      -0.291749        -7.9389
 109   1.0000      -0.289733        -7.8840
 110   1.0000      -0.287552        -7.8247
 111   1.0000      -0.285731        -7.7751
 112   1.0000      -0.284117        -7.7312
 113   1.0000      -0.283279        -7.7084
 114   1.0000      -0.281341        -7.6557
 115   1.0000      -0.280392        -7.6298
 116   1.0000      -0.278926        -7.5900
 117   1.0000      -0.278652        -7.5825
 118   1.0000      -0.276248        -7.5171
 119   1.0000      -0.275844        -7.5061
 120   1.0000      -0.274398        -7.4668
 121   1.0000      -0.273497        -7.4422
 122   1.0000      -0.271067        -7.3761
 123   1.0000      -0.269782        -7.3411
 124   1.0000      -0.267390        -7.2761
 125   1.0000      -0.265951        -7.2369
 126   1.0000      -0.265365        -7.2210
 127   1.0000      -0.264922        -7.2089
 128   1.0000      -0.264602        -7.2002
 129   1.0000      -0.263418        -7.1680
 130   1.0000      -0.263078        -7.1587
 131   1.0000      -0.261377        -7.1124
 132   1.0000      -0.260229        -7.0812
 133   1.0000      -0.259596        -7.0640
 134   1.0000      -0.258067        -7.0224
 135   1.0000      -0.257391        -7.0040
 136   1.0000      -0.255733        -6.9588
 137   1.0000      -0.255034        -6.9398
 138   1.0000      -0.252297        -6.8654
 139   1.0000      -0.251552        -6.8451
 140   1.0000      -0.247990        -6.7482
 141   1.0000      -0.247443        -6.7333
 142   1.0000      -0.241717        -6.5775
 143   1.0000      -0.239494        -6.5170
 144   1.0000      -0.220906        -6.0112
 145   1.0000      -0.202825        -5.5191
 146   1.0000      -0.200151        -5.4464
 147   0.0000      -0.195505        -5.3200
 148   0.0000      -0.159161        -4.3310
 149   0.0000      -0.144511        -3.9323
 150   0.0000      -0.135193        -3.6788
 151   0.0000      -0.122959        -3.3459

                 SPIN DOWN ORBITALS
  NO   OCC          E(Eh)            E(eV)
   0   1.0000    -235.049516     -6396.0225
   1   1.0000     -27.138976      -738.4891
   2   1.0000     -23.206793      -631.4889
   3   1.0000     -23.206440      -631.4793
   4   1.0000     -23.205823      -631.4625
   5   1.0000      -4.129446      -112.3679
   6   1.0000      -4.129335      -112.3649
   7   1.0000      -4.124073      -112.2217
   8   1.0000      -4.123605      -112.2090
   9   1.0000      -4.123374      -112.2027
  10   1.0000      -4.122766      -112.1862
  11   1.0000      -4.118878      -112.0804
  12   1.0000      -4.117782      -112.0505
  13   1.0000      -4.116601      -112.0184
  14   1.0000      -4.113945      -111.9461
  15   1.0000      -4.112755      -111.9137
  16   1.0000      -4.111908      -111.8907
  17   1.0000      -4.109323      -111.8204
  18   1.0000      -4.108936      -111.8098
  19   1.0000      -3.038489       -82.6815
  20   1.0000      -2.319359       -63.1130
  21   1.0000      -2.318199       -63.0814
  22   1.0000      -2.316506       -63.0353
  23   1.0000      -2.313193       -62.9452
  24   1.0000      -2.312795       -62.9343
  25   1.0000      -2.311794       -62.9071
  26   1.0000      -2.311322       -62.8943
  27   1.0000      -2.310859       -62.8817
  28   1.0000      -2.310690       -62.8771
  29   1.0000      -2.310398       -62.8691
  30   1.0000      -2.310005       -62.8584
  31   1.0000      -2.308868       -62.8275
  32   1.0000      -2.308757       -62.8245
  33   1.0000      -2.308241       -62.8104
  34   1.0000      -2.308220       -62.8099
  35   1.0000      -2.307711       -62.7960
  36   1.0000      -2.307512       -62.7906
  37   1.0000      -2.306565       -62.7648
  38   1.0000      -2.306306       -62.7578
  39   1.0000      -2.305949       -62.7481
  40   1.0000      -2.304659       -62.7130
  41   1.0000      -2.303505       -62.6816
  42   1.0000      -2.303303       -62.6761
  43   1.0000      -2.302718       -62.6601
  44   1.0000      -2.301975       -62.6399
  45   1.0000      -2.301347       -62.6228
  46   1.0000      -2.300939       -62.6117
  47   1.0000      -2.300674       -62.6045
  48   1.0000      -2.300398       -62.5970
  49   1.0000      -2.300127       -62.5896
  50   1.0000      -2.299002       -62.5590
  51   1.0000      -2.298359       -62.5415
  52   1.0000      -2.298127       -62.5352
  53   1.0000      -2.297205       -62.5101
  54   1.0000      -2.297155       -62.5088
  55   1.0000      -2.297132       -62.5081
  56   1.0000      -2.294966       -62.4492
  57   1.0000      -2.294532       -62.4374
  58   1.0000      -2.294048       -62.4242
  59   1.0000      -2.293083       -62.3980
  60   1.0000      -2.293070       -62.3976
  61   1.0000      -2.291143       -62.3452
  62   1.0000      -1.897393       -51.6307
  63   1.0000      -1.896353       -51.6024
  64   1.0000      -1.895019       -51.5661
  65   1.0000      -0.433643       -11.8000
  66   1.0000      -0.400254       -10.8915
  67   1.0000      -0.394195       -10.7266
  68   1.0000      -0.392246       -10.6736
  69   1.0000      -0.381374       -10.3777
  70   1.0000      -0.379092       -10.3156
  71   1.0000      -0.376066       -10.2333
  72   1.0000      -0.374578       -10.1928
  73   1.0000      -0.370528       -10.0826
  74   1.0000      -0.369774       -10.0621
  75   1.0000      -0.368537       -10.0284
  76   1.0000      -0.366469        -9.9721
  77   1.0000      -0.363461        -9.8903
  78   1.0000      -0.360642        -9.8136
  79   1.0000      -0.358531        -9.7561
  80   1.0000      -0.354878        -9.6567
  81   1.0000      -0.353504        -9.6193
  82   1.0000      -0.349769        -9.5177
  83   1.0000      -0.349209        -9.5025
  84   1.0000      -0.344633        -9.3779
  85   1.0000      -0.343825        -9.3560
  86   1.0000      -0.342413        -9.3175
  87   1.0000      -0.340791        -9.2734
  88   1.0000      -0.338021        -9.1980
  89   1.0000      -0.337313        -9.1787
  90   1.0000      -0.333200        -9.0668
  91   1.0000      -0.330327        -8.9887
  92   1.0000      -0.327033        -8.8990
  93   1.0000      -0.325365        -8.8536
  94   1.0000      -0.323404        -8.8003
  95   1.0000      -0.320760        -8.7283
  96   1.0000      -0.318818        -8.6755
  97   1.0000      -0.315915        -8.5965
  98   1.0000      -0.309308        -8.4167
  99   1.0000      -0.307326        -8.3628
 100   1.0000      -0.306119        -8.3299
 101   1.0000      -0.304093        -8.2748
 102   1.0000      -0.301523        -8.2049
 103   1.0000      -0.299650        -8.1539
 104   1.0000      -0.297898        -8.1062
 105   1.0000      -0.295881        -8.0513
 106   1.0000      -0.295514        -8.0414
 107   1.0000      -0.291680        -7.9370
 108   1.0000      -0.290488        -7.9046
 109   1.0000      -0.287395        -7.8204
 110   1.0000      -0.285866        -7.7788
 111   1.0000      -0.284908        -7.7527
 112   1.0000      -0.284459        -7.7405
 113   1.0000      -0.282920        -7.6986
 114   1.0000      -0.281716        -7.6659
 115   1.0000      -0.280015        -7.6196
 116   1.0000      -0.279003        -7.5921
 117   1.0000      -0.277172        -7.5422
 118   1.0000      -0.275430        -7.4948
 119   1.0000      -0.274518        -7.4700
 120   1.0000      -0.273383        -7.4391
 121   1.0000      -0.270715        -7.3665
 122   1.0000      -0.269176        -7.3247
 123   1.0000      -0.268749        -7.3130
 124   1.0000      -0.267945        -7.2912
 125   1.0000      -0.266145        -7.2422
 126   1.0000      -0.265006        -7.2112
 127   1.0000      -0.264788        -7.2052
 128   1.0000      -0.263217        -7.1625
 129   1.0000      -0.262646        -7.1470
 130   1.0000      -0.259277        -7.0553
 131   1.0000      -0.257450        -7.0056
 132   1.0000      -0.256632        -6.9833
 133   1.0000      -0.255240        -6.9454
 134   1.0000      -0.254056        -6.9132
 135   1.0000      -0.251747        -6.8504
 136   1.0000      -0.249764        -6.7964
 137   1.0000      -0.243821        -6.6347
 138   1.0000      -0.241933        -6.5833
 139   1.0000      -0.227311        -6.1854
 140   1.0000      -0.212253        -5.7757
 141   1.0000      -0.211355        -5.7513
 142   1.0000      -0.207837        -5.6555
 143   1.0000      -0.171750        -4.6735
 144   0.0000      -0.148209        -4.0330
 145   0.0000      -0.146852        -3.9960
 146   0.0000      -0.127865        -3.4794
 147   0.0000      -0.121996        -3.3197
 148   0.0000      -0.117507        -3.1975

MULLIKEN ATOMIC CHARGES AND SPIN POPULATIONS
--------------------------------------------
   0 Au:    0.184562   -0.051594
   1 Au:   -0.410483   -0.114280
   2 Au:    0.213915   -0.132026
   3 Au:    0.280935   -0.114121
   4 Au:    0.316558   -0.151769
   5 Au:    0.217318    0.015565
   6 Au:    0.255437   -0.172083
   7 Au:   -0.426915   -0.224730
   8 Au:    0.279712   -0.034420
   9 Au:    0.081964   -0.086573
  10 Au:    0.331522   -0.040299
  11 Au:   -0.110797    0.014344
  12 Au:    0.187055   -0.151415
  13 Au:    0.453333   -0.056036
  14 Mn:   -1.854115    4.299437
Sum of atomic charges         :   -0.0000000

LOEWDIN ATOMIC CHARGES AND SPIN POPULATIONS
-------------------------------------------
   0 Au:    0.032734   -0.070281
   1 Au:   -0.079282   -0.096770
   2 Au:    0.003286   -0.088839
   3 Au:    0.075559   -0.108336
   4 Au:    0.094647   -0.168897
   5 Au:    0.057091   -0.020628
   6 Au:    0.042848   -0.157366
   7 Au:   -0.093809   -0.134060
   8 Au:    0.093475   -0.083371
   9 Au:    0.003806   -0.080218
  10 Au:    0.097997   -0.060006
  11 Au:   -0.072100   -0.024029
  12 Au:   -0.002162   -0.092295
  13 Au:    0.107392   -0.109457
  14 Mn:   -0.361483    4.294552

  Mayer bond orders larger than 0.100000
B(  0-Au,  2-Au) :   0.1751 B(  0-Au,  5-Au) :   0.1750 B(  0-Au,  6-Au) :   0.2533
B(  0-Au,  7-Au) :   0.2832 B(  0-Au,  9-Au) :   0.1772 B(  0-Au, 14-Mn) :   0.3985
B(  1-Au,  2-Au) :   0.1286 B(  1-Au,  3-Au) :   0.1032 B(  1-Au,  4-Au) :   0.4237
B(  1-Au,  6-Au) :   0.2320 B(  1-Au, 11-Au) :   0.1880 B(  1-Au, 13-Au) :   0.3806
B(  1-Au, 14-Mn) :   0.4931 B(  2-Au,  4-Au) :   0.2193 B(  2-Au,  5-Au) :   0.2657
B(  2-Au,  6-Au) :   0.2641 B(  2-Au, 14-Mn) :   0.3845 B(  3-Au,  4-Au) :   0.1874
B(  3-Au, 11-Au) :   0.2235 B(  3-Au, 12-Au) :   0.2590 B(  3-Au, 14-Mn) :   0.4569
B(  4-Au, 14-Mn) :   0.3000 B(  5-Au,  8-Au) :   0.2239 B(  5-Au, 14-Mn) :   0.4990
B(  6-Au,  7-Au) :   0.3240 B(  6-Au, 13-Au) :   0.1494 B(  6-Au, 14-Mn) :   0.1331
B(  7-Au,  9-Au) :   0.2926 B(  7-Au, 10-Au) :   0.3594 B(  7-Au, 11-Au) :   0.2230
B(  7-Au, 13-Au) :   0.3033 B(  7-Au, 14-Mn) :   0.3030 B(  8-Au,  9-Au) :   0.2373
B(  8-Au, 12-Au) :   0.2104 B(  8-Au, 14-Mn) :   0.4278 B(  9-Au, 10-Au) :   0.2654
B(  9-Au, 12-Au) :   0.1045 B(  9-Au, 14-Mn) :   0.4263 B( 10-Au, 11-Au) :   0.2784
B( 10-Au, 12-Au) :   0.2155 B( 11-Au, 12-Au) :   0.2732 B( 11-Au, 13-Au) :   0.2495
B( 11-Au, 14-Mn) :   0.2746 B( 12-Au, 14-Mn) :   0.4312

FINAL SINGLE POINT ENERGY     -3052.846899375903

DIPOLE MOMENT
-------------
                                X             Y             Z
Electronic contribution:    -26.96240      16.25562      -9.94198
Nuclear contribution   :     26.88379     -16.21063       9.90247
                        -----------------------------------------
Total Dipole Moment    :     -0.07861       0.04499      -0.03951
                        -----------------------------------------
Magnitude (a.u.)       :      0.09881
Magnitude (Debye)      :      0.25117

Rotational constants in cm-1:     0.001085     0.001061     0.000915
Rotational constants in MHz :    32.527920    31.815017    27.423815

                             ****ORCA TERMINATED NORMALLY****
TOTAL RUN TIME: 0 days 0 hours 10 minutes 52 seconds 592 msec
