                         Program Version 5.0.3 -  RELEASE  -
|  1> !RI-B2PLYP def2-TZVP def2-TZVP/C
|  2> !RIJCOSX VERYSLOWCONV
|  3>
|  4> %scf
|  5>   AutoTRAHIter 200
|  6>   maxiter 400
|  7> end
|  8>
|  9>
| 10> %pal nprocs 6 end
| 11>
| 12> *xyzfile 0 6 pbe.xyz
| 13>
| 14> $new_job
| 15>
| 16> !RI-B2PLYP def2-TZVP def2-TZVP/C
| 17> !RIJCOSX VERYSLOWCONV
| 18>
| 19> %scf
| 20>   AutoTRAHIter 200
| 21>   maxiter 400
| 22> end
| 23>
| 24>
| 25> %pal nprocs 6 end
| 26>
| 27> *xyzfile 0 4 pbe.xyz
| 28>
| 29>
| 30>
| 31>
| 32>
| 33>                          ****END OF INPUT****
 Total Charge           Charge          ....    0
 Multiplicity           Mult            ....    6
 Number of Electrons    NEL             ....  291
MP2 TOTAL ENERGY:    -3049.082193610 Eh
FINAL SINGLE POINT ENERGY     -3049.082193609640

CARTESIAN COORDINATES (ANGSTROEM)
---------------------------------
  Au    10.351422    6.120328    6.482670
  Au     6.299229    6.109645    6.135402
  Au    10.555741    5.004578    9.047429
  Au     8.138866    4.780001    7.697212
  Au     6.103956    6.180445    8.890519
  Au     8.512822    6.522542   10.160926
  Au    10.715059    7.796461    8.847078
  Au     6.849840    8.687263    9.784962
  Au     9.372806   10.027895    8.314208
  Au     6.691152   10.930439    8.145665
  Au     7.981644    9.953747    5.935514
  Au     6.146961    8.423550    4.595859
  Au     8.837420    7.568703    4.848143
  Au     5.536884    8.559329    7.295741
  Mn     8.273713    7.621096    7.547085

 Multiplicity           Mult            ....    4
 Number of Electrons    NEL             ....  291
 Basis Dimension        Dim             ....  605

ORBITAL ENERGIES
----------------
                 SPIN UP ORBITALS
  NO   OCC          E(Eh)            E(eV)
   0   1.0000    -237.629167     -6466.2184
   1   1.0000     -28.129392      -765.4397
   2   1.0000     -24.047823      -654.3745
   3   1.0000     -24.047115      -654.3553
   4   1.0000     -24.046726      -654.3447
   5   1.0000      -4.406027      -119.8941
   6   1.0000      -4.404289      -119.8468
   7   1.0000      -4.403771      -119.8327
   8   1.0000      -4.401661      -119.7753
   9   1.0000      -4.401620      -119.7742
  10   1.0000      -4.398977      -119.7022
  11   1.0000      -4.398772      -119.6967
  12   1.0000      -4.398089      -119.6781
  13   1.0000      -4.395578      -119.6097
  14   1.0000      -4.395462      -119.6066
  15   1.0000      -4.392388      -119.5230
  16   1.0000      -4.392347      -119.5218
  17   1.0000      -4.392222      -119.5184
  18   1.0000      -4.392059      -119.5140
  19   1.0000      -3.607841       -98.1743
  20   1.0000      -2.525672       -68.7270
  21   1.0000      -2.525072       -68.7107
  22   1.0000      -2.524828       -68.7041
  23   1.0000      -2.524483       -68.6947
  24   1.0000      -2.524287       -68.6893
  25   1.0000      -2.523682       -68.6729
  26   1.0000      -2.523037       -68.6553
  27   1.0000      -2.521459       -68.6124
  28   1.0000      -2.521112       -68.6029
  29   1.0000      -2.520364       -68.5826
  30   1.0000      -2.520280       -68.5803
  31   1.0000      -2.520133       -68.5763
  32   1.0000      -2.519616       -68.5622
  33   1.0000      -2.518397       -68.5291
  34   1.0000      -2.517656       -68.5089
  35   1.0000      -2.517339       -68.5003
  36   1.0000      -2.516818       -68.4861
  37   1.0000      -2.516325       -68.4727
  38   1.0000      -2.516160       -68.4682
  39   1.0000      -2.515962       -68.4628
  40   1.0000      -2.515351       -68.4462
  41   1.0000      -2.515040       -68.4377
  42   1.0000      -2.514233       -68.4158
  43   1.0000      -2.513762       -68.4029
  44   1.0000      -2.512890       -68.3792
  45   1.0000      -2.512639       -68.3724
  46   1.0000      -2.512469       -68.3678
  47   1.0000      -2.512151       -68.3591
  48   1.0000      -2.510924       -68.3257
  49   1.0000      -2.510710       -68.3199
  50   1.0000      -2.509939       -68.2989
  51   1.0000      -2.509810       -68.2954
  52   1.0000      -2.509259       -68.2804
  53   1.0000      -2.509198       -68.2787
  54   1.0000      -2.509039       -68.2744
  55   1.0000      -2.508384       -68.2566
  56   1.0000      -2.508121       -68.2494
  57   1.0000      -2.507840       -68.2418
  58   1.0000      -2.507143       -68.2228
  59   1.0000      -2.506999       -68.2189
  60   1.0000      -2.504169       -68.1419
  61   1.0000      -2.504100       -68.1400
  62   1.0000      -2.410726       -65.5992
  63   1.0000      -2.409122       -65.5556
  64   1.0000      -2.408909       -65.5497
  65   1.0000      -0.515685       -14.0325
  66   1.0000      -0.515150       -14.0179
  67   1.0000      -0.513898       -13.9839
  68   1.0000      -0.511869       -13.9287
  69   1.0000      -0.509014       -13.8510
  70   1.0000      -0.501126       -13.6363
  71   1.0000      -0.468260       -12.7420
  72   1.0000      -0.467439       -12.7197
  73   1.0000      -0.467143       -12.7116
  74   1.0000      -0.466437       -12.6924
  75   1.0000      -0.459554       -12.5051
  76   1.0000      -0.459474       -12.5029
  77   1.0000      -0.457203       -12.4411
  78   1.0000      -0.454427       -12.3656
  79   1.0000      -0.452192       -12.3048
  80   1.0000      -0.451924       -12.2975
  81   1.0000      -0.448755       -12.2112
  82   1.0000      -0.448386       -12.2012
  83   1.0000      -0.447393       -12.1742
  84   1.0000      -0.445977       -12.1356
  85   1.0000      -0.444678       -12.1003
  86   1.0000      -0.440854       -11.9962
  87   1.0000      -0.440560       -11.9882
  88   1.0000      -0.438368       -11.9286
  89   1.0000      -0.435536       -11.8515
  90   1.0000      -0.434132       -11.8133
  91   1.0000      -0.431265       -11.7353
  92   1.0000      -0.430615       -11.7176
  93   1.0000      -0.424696       -11.5566
  94   1.0000      -0.422238       -11.4897
  95   1.0000      -0.420280       -11.4364
  96   1.0000      -0.417467       -11.3598
  97   1.0000      -0.411996       -11.2110
  98   1.0000      -0.409934       -11.1549
  99   1.0000      -0.404707       -11.0126
 100   1.0000      -0.401361       -10.9216
 101   1.0000      -0.400580       -10.9003
 102   1.0000      -0.398081       -10.8323
 103   1.0000      -0.396593       -10.7918
 104   1.0000      -0.394861       -10.7447
 105   1.0000      -0.392511       -10.6808
 106   1.0000      -0.389621       -10.6021
 107   1.0000      -0.383492       -10.4353
 108   1.0000      -0.383126       -10.4254
 109   1.0000      -0.378418       -10.2973
 110   1.0000      -0.378127       -10.2893
 111   1.0000      -0.376452       -10.2438
 112   1.0000      -0.376226       -10.2376
 113   1.0000      -0.373167       -10.1544
 114   1.0000      -0.373099       -10.1525
 115   1.0000      -0.371402       -10.1064
 116   1.0000      -0.368784       -10.0351
 117   1.0000      -0.368318       -10.0224
 118   1.0000      -0.367520       -10.0007
 119   1.0000      -0.366215        -9.9652
 120   1.0000      -0.363435        -9.8896
 121   1.0000      -0.361438        -9.8352
 122   1.0000      -0.360337        -9.8053
 123   1.0000      -0.358747        -9.7620
 124   1.0000      -0.354678        -9.6513
 125   1.0000      -0.354608        -9.6494
 126   1.0000      -0.353948        -9.6314
 127   1.0000      -0.353021        -9.6062
 128   1.0000      -0.352419        -9.5898
 129   1.0000      -0.350702        -9.5431
 130   1.0000      -0.348639        -9.4869
 131   1.0000      -0.347148        -9.4464
 132   1.0000      -0.346621        -9.4320
 133   1.0000      -0.344659        -9.3787
 134   1.0000      -0.343437        -9.3454
 135   1.0000      -0.339810        -9.2467
 136   1.0000      -0.338939        -9.2230
 137   1.0000      -0.329164        -8.9570
 138   1.0000      -0.328350        -8.9349
 139   1.0000      -0.324123        -8.8198
 140   1.0000      -0.321508        -8.7487
 141   1.0000      -0.311983        -8.4895
 142   1.0000      -0.308476        -8.3941
 143   1.0000      -0.299916        -8.1611
 144   1.0000      -0.242177        -6.5900
 145   1.0000      -0.232892        -6.3373
 146   1.0000      -0.214489        -5.8365
 147   0.0000      -0.136150        -3.7048
 148   0.0000      -0.097035        -2.6405
 149   0.0000      -0.079713        -2.1691
 150   0.0000      -0.073394        -1.9971
 151   0.0000      -0.070814        -1.9270

                 SPIN DOWN ORBITALS
  NO   OCC          E(Eh)            E(eV)
   0   1.0000    -237.627140     -6466.1632
   1   1.0000     -28.027906      -762.6781
   2   1.0000     -23.954522      -651.8357
   3   1.0000     -23.954129      -651.8250
   4   1.0000     -23.953448      -651.8064
   5   1.0000      -4.407413      -119.9318
   6   1.0000      -4.405487      -119.8794
   7   1.0000      -4.404579      -119.8547
   8   1.0000      -4.402027      -119.7852
   9   1.0000      -4.401977      -119.7839
  10   1.0000      -4.399551      -119.7179
  11   1.0000      -4.399334      -119.7120
  12   1.0000      -4.399066      -119.7047
  13   1.0000      -4.395604      -119.6105
  14   1.0000      -4.395495      -119.6075
  15   1.0000      -4.393721      -119.5592
  16   1.0000      -4.393539      -119.5543
  17   1.0000      -4.392362      -119.5222
  18   1.0000      -4.392323      -119.5212
  19   1.0000      -3.322521       -90.4104
  20   1.0000      -2.526536       -68.7506
  21   1.0000      -2.525583       -68.7246
  22   1.0000      -2.525211       -68.7145
  23   1.0000      -2.525175       -68.7135
  24   1.0000      -2.524509       -68.6954
  25   1.0000      -2.524266       -68.6888
  26   1.0000      -2.522683       -68.6457
  27   1.0000      -2.521932       -68.6252
  28   1.0000      -2.521769       -68.6208
  29   1.0000      -2.520680       -68.5912
  30   1.0000      -2.520219       -68.5786
  31   1.0000      -2.519915       -68.5704
  32   1.0000      -2.519135       -68.5492
  33   1.0000      -2.518544       -68.5331
  34   1.0000      -2.517793       -68.5126
  35   1.0000      -2.517381       -68.5014
  36   1.0000      -2.516940       -68.4894
  37   1.0000      -2.516902       -68.4884
  38   1.0000      -2.516326       -68.4727
  39   1.0000      -2.515943       -68.4623
  40   1.0000      -2.515605       -68.4531
  41   1.0000      -2.515509       -68.4505
  42   1.0000      -2.514946       -68.4352
  43   1.0000      -2.514227       -68.4156
  44   1.0000      -2.513120       -68.3855
  45   1.0000      -2.513025       -68.3829
  46   1.0000      -2.512882       -68.3790
  47   1.0000      -2.512175       -68.3597
  48   1.0000      -2.511873       -68.3515
  49   1.0000      -2.511468       -68.3405
  50   1.0000      -2.510788       -68.3220
  51   1.0000      -2.510574       -68.3162
  52   1.0000      -2.510147       -68.3046
  53   1.0000      -2.509772       -68.2944
  54   1.0000      -2.509678       -68.2918
  55   1.0000      -2.509188       -68.2785
  56   1.0000      -2.509086       -68.2757
  57   1.0000      -2.508282       -68.2538
  58   1.0000      -2.507661       -68.2369
  59   1.0000      -2.507453       -68.2313
  60   1.0000      -2.504810       -68.1593
  61   1.0000      -2.504728       -68.1571
  62   1.0000      -2.084341       -56.7178
  63   1.0000      -2.082796       -56.6758
  64   1.0000      -2.081812       -56.6490
  65   1.0000      -0.503403       -13.6983
  66   1.0000      -0.475707       -12.9446
  67   1.0000      -0.473665       -12.8891
  68   1.0000      -0.472937       -12.8693
  69   1.0000      -0.471715       -12.8360
  70   1.0000      -0.470885       -12.8134
  71   1.0000      -0.468981       -12.7616
  72   1.0000      -0.463590       -12.6149
  73   1.0000      -0.462228       -12.5779
  74   1.0000      -0.458324       -12.4716
  75   1.0000      -0.457918       -12.4606
  76   1.0000      -0.454293       -12.3619
  77   1.0000      -0.451023       -12.2730
  78   1.0000      -0.450845       -12.2681
  79   1.0000      -0.450157       -12.2494
  80   1.0000      -0.448670       -12.2089
  81   1.0000      -0.444429       -12.0935
  82   1.0000      -0.444109       -12.0848
  83   1.0000      -0.441457       -12.0127
  84   1.0000      -0.438528       -11.9330
  85   1.0000      -0.437620       -11.9082
  86   1.0000      -0.436173       -11.8689
  87   1.0000      -0.434094       -11.8123
  88   1.0000      -0.433242       -11.7891
  89   1.0000      -0.426469       -11.6048
  90   1.0000      -0.424869       -11.5613
  91   1.0000      -0.418633       -11.3916
  92   1.0000      -0.415897       -11.3171
  93   1.0000      -0.413638       -11.2557
  94   1.0000      -0.413575       -11.2539
  95   1.0000      -0.412271       -11.2185
  96   1.0000      -0.405175       -11.0254
  97   1.0000      -0.404530       -11.0078
  98   1.0000      -0.402081       -10.9412
  99   1.0000      -0.399193       -10.8626
 100   1.0000      -0.398726       -10.8499
 101   1.0000      -0.393584       -10.7100
 102   1.0000      -0.389862       -10.6087
 103   1.0000      -0.388192       -10.5633
 104   1.0000      -0.384638       -10.4665
 105   1.0000      -0.382188       -10.3999
 106   1.0000      -0.381256       -10.3745
 107   1.0000      -0.379081       -10.3153
 108   1.0000      -0.377472       -10.2715
 109   1.0000      -0.376847       -10.2545
 110   1.0000      -0.375784       -10.2256
 111   1.0000      -0.371237       -10.1019
 112   1.0000      -0.371136       -10.0991
 113   1.0000      -0.369139       -10.0448
 114   1.0000      -0.368936       -10.0392
 115   1.0000      -0.366100        -9.9621
 116   1.0000      -0.364246        -9.9116
 117   1.0000      -0.361126        -9.8267
 118   1.0000      -0.361063        -9.8250
 119   1.0000      -0.357948        -9.7403
 120   1.0000      -0.356684        -9.7059
 121   1.0000      -0.356045        -9.6885
 122   1.0000      -0.355848        -9.6831
 123   1.0000      -0.354789        -9.6543
 124   1.0000      -0.353310        -9.6141
 125   1.0000      -0.352125        -9.5818
 126   1.0000      -0.351119        -9.5544
 127   1.0000      -0.349343        -9.5061
 128   1.0000      -0.346098        -9.4178
 129   1.0000      -0.346077        -9.4172
 130   1.0000      -0.343977        -9.3601
 131   1.0000      -0.341919        -9.3041
 132   1.0000      -0.332649        -9.0518
 133   1.0000      -0.331684        -9.0256
 134   1.0000      -0.328260        -8.9324
 135   1.0000      -0.324842        -8.8394
 136   1.0000      -0.318628        -8.6703
 137   1.0000      -0.314887        -8.5685
 138   1.0000      -0.313883        -8.5412
 139   1.0000      -0.247157        -6.7255
 140   1.0000      -0.243783        -6.6337
 141   1.0000      -0.231427        -6.2974
 142   1.0000      -0.229164        -6.2359
 143   1.0000      -0.187773        -5.1096
 144   0.0000      -0.082784        -2.2527
 145   0.0000      -0.075646        -2.0584
 146   0.0000      -0.073653        -2.0042
 147   0.0000      -0.067279        -1.8307
 148   0.0000      -0.060977        -1.6593

MULLIKEN ATOMIC CHARGES AND SPIN POPULATIONS
--------------------------------------------
   0 Au:    0.165211   -0.102451
   1 Au:    0.101711   -0.113930
   2 Au:    0.303178    0.001809
   3 Au:    0.086817   -0.107754
   4 Au:    0.184862   -0.188051
   5 Au:    0.087091   -0.108874
   6 Au:    0.166117   -0.105034
   7 Au:    0.103459   -0.111075
   8 Au:    0.141760    0.016801
   9 Au:    0.279258   -0.084595
  10 Au:    0.053833   -0.342693
  11 Au:    0.280892   -0.083389
  12 Au:    0.141002    0.016885
  13 Au:   -0.081701   -0.200576
  14 Mn:   -2.013490    4.512927
Sum of atomic charges         :    0.0000000

LOEWDIN ATOMIC CHARGES AND SPIN POPULATIONS
-------------------------------------------
   0 Au:    0.012815   -0.076358
   1 Au:   -0.002236   -0.133158
   2 Au:    0.103255   -0.054044
   3 Au:   -0.004080   -0.083878
   4 Au:    0.039116   -0.145800
   5 Au:   -0.003406   -0.084497
   6 Au:    0.013264   -0.077446
   7 Au:   -0.001530   -0.132448
   8 Au:    0.025135   -0.089020
   9 Au:    0.078558   -0.130491
  10 Au:   -0.029588   -0.169473
  11 Au:    0.079813   -0.130254
  12 Au:    0.024235   -0.088749
  13 Au:   -0.037514   -0.128270
  14 Mn:   -0.297836    4.523885

  Mayer bond orders larger than 0.100000
B(  0-Au,  2-Au) :   0.2351 B(  0-Au,  3-Au) :   0.1773 B(  0-Au,  6-Au) :   0.1256
B(  0-Au, 12-Au) :   0.3363 B(  0-Au, 14-Mn) :   0.4146 B(  1-Au,  3-Au) :   0.2907
B(  1-Au,  4-Au) :   0.1903 B(  1-Au, 11-Au) :   0.2982 B(  1-Au, 13-Au) :   0.1771
B(  1-Au, 14-Mn) :   0.3966 B(  2-Au,  3-Au) :   0.2751 B(  2-Au,  5-Au) :   0.2754
B(  2-Au,  6-Au) :   0.2362 B(  3-Au,  4-Au) :   0.1751 B(  3-Au,  5-Au) :   0.1217
B(  3-Au, 14-Mn) :   0.3528 B(  4-Au,  5-Au) :   0.1748 B(  4-Au,  7-Au) :   0.1890
B(  4-Au, 13-Au) :   0.1975 B(  4-Au, 14-Mn) :   0.3947 B(  5-Au,  6-Au) :   0.1759
B(  5-Au,  7-Au) :   0.2905 B(  5-Au, 14-Mn) :   0.3541 B(  6-Au,  8-Au) :   0.3347
B(  6-Au, 14-Mn) :   0.4149 B(  7-Au,  9-Au) :   0.2978 B(  7-Au, 13-Au) :   0.1774
B(  7-Au, 14-Mn) :   0.3963 B(  8-Au,  9-Au) :   0.2200 B(  8-Au, 10-Au) :   0.1814
B(  8-Au, 14-Mn) :   0.4637 B(  9-Au, 10-Au) :   0.2276 B(  9-Au, 13-Au) :   0.2492
B(  9-Au, 14-Mn) :   0.1248 B( 10-Au, 11-Au) :   0.2283 B( 10-Au, 12-Au) :   0.1804
B( 10-Au, 13-Au) :   0.1716 B( 10-Au, 14-Mn) :   0.3349 B( 11-Au, 12-Au) :   0.2206
B( 11-Au, 13-Au) :   0.2490 B( 11-Au, 14-Mn) :   0.1228 B( 12-Au, 14-Mn) :   0.4622
B( 13-Au, 14-Mn) :   0.3393

MP2 TOTAL ENERGY:    -3049.057367168 Eh
FINAL SINGLE POINT ENERGY     -3049.057367167674

DIPOLE MOMENT
-------------
                                X             Y             Z
Electronic contribution:     -9.84553      -0.18196       1.44863
Nuclear contribution   :      9.74624       0.07932      -1.36131
                        -----------------------------------------
Total Dipole Moment    :     -0.09929      -0.10264       0.08732
                        -----------------------------------------
Magnitude (a.u.)       :      0.16738
Magnitude (Debye)      :      0.42545

Rotational constants in cm-1:     0.001241     0.000935     0.000872
Rotational constants in MHz :    37.214731    28.044572    26.150102

                             ****ORCA TERMINATED NORMALLY****
TOTAL RUN TIME: 0 days 0 hours 57 minutes 33 seconds 58 msec
