                         Program Version 5.0.3 -  RELEASE  -
|  1> !PBE def2-TZVP VERYSLOWCONV
|  2> !KDIIS
|  3>
|  4> %scf
|  5>   AutoTRAHIter 200
|  6>   maxiter 400
|  7> end
|  8>
|  9>
| 10> %pal nprocs 6 end
| 11>
| 12> *xyzfile 0 6 pbe.xyz
| 13>
| 14> $new_job
| 15>
| 16> !PBE def2-TZVP VERYSLOWCONV
| 17> !KDIIS
| 18>
| 19> %scf
| 20>   AutoTRAHIter 200
| 21>   maxiter 400
| 22> end
| 23>
| 24>
| 25> %pal nprocs 6 end
| 26>
| 27> *xyzfile 0 4 pbe.xyz
| 28>
| 29>
| 30>
| 31>
| 32>
| 33>                          ****END OF INPUT****
 Total Charge           Charge          ....    0
 Multiplicity           Mult            ....    6
 Number of Electrons    NEL             ....  291
FINAL SINGLE POINT ENERGY     -3052.377802257025

CARTESIAN COORDINATES (ANGSTROEM)
---------------------------------
  Au    10.351422    6.120328    6.482670
  Au     6.299229    6.109645    6.135402
  Au    10.555741    5.004578    9.047429
  Au     8.138866    4.780001    7.697212
  Au     6.103956    6.180445    8.890519
  Au     8.512822    6.522542   10.160926
  Au    10.715059    7.796461    8.847078
  Au     6.849840    8.687263    9.784962
  Au     9.372806   10.027895    8.314208
  Au     6.691152   10.930439    8.145665
  Au     7.981644    9.953747    5.935514
  Au     6.146961    8.423550    4.595859
  Au     8.837420    7.568703    4.848143
  Au     5.536884    8.559329    7.295741
  Mn     8.273713    7.621096    7.547085

 Multiplicity           Mult            ....    4
 Number of Electrons    NEL             ....  291
 Basis Dimension        Dim             ....  605

ORBITAL ENERGIES
----------------
                 SPIN UP ORBITALS
  NO   OCC          E(Eh)            E(eV)
   0   1.0000    -234.204451     -6373.0271
   1   1.0000     -26.897472      -731.9174
   2   1.0000     -23.047796      -627.1624
   3   1.0000     -23.046030      -627.1144
   4   1.0000     -23.044032      -627.0600
   5   1.0000      -4.034226      -109.7769
   6   1.0000      -4.032788      -109.7378
   7   1.0000      -4.032257      -109.7233
   8   1.0000      -4.030309      -109.6703
   9   1.0000      -4.030274      -109.6693
  10   1.0000      -4.029432      -109.6464
  11   1.0000      -4.029219      -109.6406
  12   1.0000      -4.027133      -109.5839
  13   1.0000      -4.024722      -109.5182
  14   1.0000      -4.024601      -109.5150
  15   1.0000      -4.023029      -109.4722
  16   1.0000      -4.022936      -109.4696
  17   1.0000      -4.022930      -109.4695
  18   1.0000      -4.022739      -109.4643
  19   1.0000      -3.107508       -84.5596
  20   1.0000      -2.249089       -61.2008
  21   1.0000      -2.248964       -61.1974
  22   1.0000      -2.248716       -61.1907
  23   1.0000      -2.248672       -61.1895
  24   1.0000      -2.248341       -61.1805
  25   1.0000      -2.246348       -61.1262
  26   1.0000      -2.246068       -61.1186
  27   1.0000      -2.245572       -61.1051
  28   1.0000      -2.245154       -61.0938
  29   1.0000      -2.245130       -61.0931
  30   1.0000      -2.244120       -61.0656
  31   1.0000      -2.243947       -61.0609
  32   1.0000      -2.243492       -61.0485
  33   1.0000      -2.243180       -61.0400
  34   1.0000      -2.243148       -61.0392
  35   1.0000      -2.243114       -61.0382
  36   1.0000      -2.242810       -61.0300
  37   1.0000      -2.241666       -60.9988
  38   1.0000      -2.241434       -60.9925
  39   1.0000      -2.240476       -60.9665
  40   1.0000      -2.240362       -60.9634
  41   1.0000      -2.239720       -60.9459
  42   1.0000      -2.239346       -60.9357
  43   1.0000      -2.239250       -60.9331
  44   1.0000      -2.238544       -60.9139
  45   1.0000      -2.238336       -60.9082
  46   1.0000      -2.238209       -60.9048
  47   1.0000      -2.237746       -60.8922
  48   1.0000      -2.237453       -60.8842
  49   1.0000      -2.237249       -60.8786
  50   1.0000      -2.236833       -60.8673
  51   1.0000      -2.236806       -60.8666
  52   1.0000      -2.236382       -60.8551
  53   1.0000      -2.236196       -60.8500
  54   1.0000      -2.235760       -60.8381
  55   1.0000      -2.235469       -60.8302
  56   1.0000      -2.234008       -60.7905
  57   1.0000      -2.233812       -60.7851
  58   1.0000      -2.233356       -60.7727
  59   1.0000      -2.232238       -60.7423
  60   1.0000      -2.230056       -60.6829
  61   1.0000      -2.229944       -60.6799
  62   1.0000      -2.013687       -54.7952
  63   1.0000      -2.009861       -54.6911
  64   1.0000      -2.006618       -54.6028
  65   1.0000      -0.429924       -11.6988
  66   1.0000      -0.391771       -10.6606
  67   1.0000      -0.386619       -10.5204
  68   1.0000      -0.383084       -10.4243
  69   1.0000      -0.373950       -10.1757
  70   1.0000      -0.373596       -10.1661
  71   1.0000      -0.370140       -10.0720
  72   1.0000      -0.364487        -9.9182
  73   1.0000      -0.363682        -9.8963
  74   1.0000      -0.361855        -9.8466
  75   1.0000      -0.355007        -9.6602
  76   1.0000      -0.353096        -9.6082
  77   1.0000      -0.348824        -9.4920
  78   1.0000      -0.348000        -9.4696
  79   1.0000      -0.347020        -9.4429
  80   1.0000      -0.345704        -9.4071
  81   1.0000      -0.343518        -9.3476
  82   1.0000      -0.341858        -9.3024
  83   1.0000      -0.340744        -9.2721
  84   1.0000      -0.338812        -9.2195
  85   1.0000      -0.338618        -9.2143
  86   1.0000      -0.334231        -9.0949
  87   1.0000      -0.331752        -9.0274
  88   1.0000      -0.330790        -9.0013
  89   1.0000      -0.330199        -8.9852
  90   1.0000      -0.329321        -8.9613
  91   1.0000      -0.326289        -8.8788
  92   1.0000      -0.322729        -8.7819
  93   1.0000      -0.316174        -8.6035
  94   1.0000      -0.315658        -8.5895
  95   1.0000      -0.315252        -8.5784
  96   1.0000      -0.309849        -8.4314
  97   1.0000      -0.306564        -8.3420
  98   1.0000      -0.304293        -8.2802
  99   1.0000      -0.304137        -8.2760
 100   1.0000      -0.300872        -8.1871
 101   1.0000      -0.295719        -8.0469
 102   1.0000      -0.294679        -8.0186
 103   1.0000      -0.294020        -8.0007
 104   1.0000      -0.292697        -7.9647
 105   1.0000      -0.288417        -7.8482
 106   1.0000      -0.287965        -7.8359
 107   1.0000      -0.284875        -7.7518
 108   1.0000      -0.281336        -7.6555
 109   1.0000      -0.281051        -7.6478
 110   1.0000      -0.279408        -7.6031
 111   1.0000      -0.279394        -7.6027
 112   1.0000      -0.276188        -7.5155
 113   1.0000      -0.273859        -7.4521
 114   1.0000      -0.272442        -7.4135
 115   1.0000      -0.270576        -7.3627
 116   1.0000      -0.268703        -7.3118
 117   1.0000      -0.266270        -7.2456
 118   1.0000      -0.265616        -7.2278
 119   1.0000      -0.265130        -7.2146
 120   1.0000      -0.263673        -7.1749
 121   1.0000      -0.262805        -7.1513
 122   1.0000      -0.262215        -7.1352
 123   1.0000      -0.260673        -7.0933
 124   1.0000      -0.260305        -7.0833
 125   1.0000      -0.259515        -7.0618
 126   1.0000      -0.258235        -7.0269
 127   1.0000      -0.256971        -6.9925
 128   1.0000      -0.256045        -6.9673
 129   1.0000      -0.255959        -6.9650
 130   1.0000      -0.254263        -6.9188
 131   1.0000      -0.252955        -6.8832
 132   1.0000      -0.251782        -6.8513
 133   1.0000      -0.250240        -6.8094
 134   1.0000      -0.249659        -6.7936
 135   1.0000      -0.246695        -6.7129
 136   1.0000      -0.245486        -6.6800
 137   1.0000      -0.245068        -6.6686
 138   1.0000      -0.243992        -6.6394
 139   1.0000      -0.241475        -6.5709
 140   1.0000      -0.240585        -6.5466
 141   1.0000      -0.237975        -6.4756
 142   1.0000      -0.234189        -6.3726
 143   1.0000      -0.228915        -6.2291
 144   1.0000      -0.219675        -5.9777
 145   1.0000      -0.211460        -5.7541
 146   1.0000      -0.194419        -5.2904
 147   0.0000      -0.193974        -5.2783
 148   0.0000      -0.165081        -4.4921
 149   0.0000      -0.142392        -3.8747
 150   0.0000      -0.137339        -3.7372
 151   0.0000      -0.135580        -3.6893

                 SPIN DOWN ORBITALS
  NO   OCC          E(Eh)            E(eV)
   0   1.0000    -234.203750     -6373.0080
   1   1.0000     -26.830907      -730.1061
   2   1.0000     -22.996855      -625.7762
   3   1.0000     -22.995887      -625.7499
   4   1.0000     -22.993490      -625.6847
   5   1.0000      -4.034737      -109.7908
   6   1.0000      -4.032956      -109.7423
   7   1.0000      -4.032560      -109.7315
   8   1.0000      -4.030393      -109.6726
   9   1.0000      -4.030362      -109.6717
  10   1.0000      -4.029756      -109.6552
  11   1.0000      -4.029542      -109.6494
  12   1.0000      -4.027873      -109.6040
  13   1.0000      -4.024430      -109.5103
  14   1.0000      -4.024320      -109.5073
  15   1.0000      -4.024198      -109.5040
  16   1.0000      -4.023963      -109.4976
  17   1.0000      -4.022938      -109.4697
  18   1.0000      -4.022859      -109.4676
  19   1.0000      -2.944065       -80.1121
  20   1.0000      -2.249949       -61.2242
  21   1.0000      -2.249530       -61.2128
  22   1.0000      -2.248981       -61.1979
  23   1.0000      -2.248867       -61.1948
  24   1.0000      -2.248576       -61.1869
  25   1.0000      -2.246635       -61.1340
  26   1.0000      -2.246113       -61.1198
  27   1.0000      -2.245878       -61.1135
  28   1.0000      -2.245374       -61.0997
  29   1.0000      -2.245313       -61.0981
  30   1.0000      -2.244510       -61.0762
  31   1.0000      -2.244274       -61.0698
  32   1.0000      -2.243483       -61.0483
  33   1.0000      -2.243393       -61.0458
  34   1.0000      -2.242806       -61.0299
  35   1.0000      -2.242793       -61.0295
  36   1.0000      -2.242391       -61.0186
  37   1.0000      -2.241971       -61.0071
  38   1.0000      -2.241705       -60.9999
  39   1.0000      -2.241162       -60.9851
  40   1.0000      -2.240845       -60.9765
  41   1.0000      -2.240279       -60.9611
  42   1.0000      -2.240070       -60.9554
  43   1.0000      -2.239584       -60.9422
  44   1.0000      -2.238928       -60.9243
  45   1.0000      -2.238706       -60.9183
  46   1.0000      -2.238309       -60.9075
  47   1.0000      -2.237969       -60.8982
  48   1.0000      -2.237598       -60.8881
  49   1.0000      -2.237520       -60.8860
  50   1.0000      -2.237354       -60.8815
  51   1.0000      -2.237043       -60.8730
  52   1.0000      -2.236853       -60.8679
  53   1.0000      -2.236563       -60.8600
  54   1.0000      -2.236106       -60.8475
  55   1.0000      -2.236096       -60.8473
  56   1.0000      -2.234922       -60.8153
  57   1.0000      -2.234728       -60.8100
  58   1.0000      -2.233565       -60.7784
  59   1.0000      -2.232424       -60.7473
  60   1.0000      -2.230479       -60.6944
  61   1.0000      -2.230348       -60.6908
  62   1.0000      -1.851971       -50.3947
  63   1.0000      -1.850477       -50.3540
  64   1.0000      -1.846264       -50.2394
  65   1.0000      -0.425485       -11.5780
  66   1.0000      -0.392186       -10.6719
  67   1.0000      -0.385671       -10.4946
  68   1.0000      -0.382817       -10.4170
  69   1.0000      -0.372536       -10.1372
  70   1.0000      -0.370935       -10.0937
  71   1.0000      -0.368395       -10.0245
  72   1.0000      -0.361926        -9.8485
  73   1.0000      -0.361514        -9.8373
  74   1.0000      -0.359049        -9.7702
  75   1.0000      -0.356122        -9.6906
  76   1.0000      -0.353388        -9.6162
  77   1.0000      -0.350064        -9.5257
  78   1.0000      -0.347677        -9.4608
  79   1.0000      -0.346901        -9.4397
  80   1.0000      -0.346396        -9.4259
  81   1.0000      -0.344098        -9.3634
  82   1.0000      -0.342299        -9.3144
  83   1.0000      -0.339312        -9.2332
  84   1.0000      -0.338069        -9.1993
  85   1.0000      -0.336154        -9.1472
  86   1.0000      -0.335065        -9.1176
  87   1.0000      -0.332692        -9.0530
  88   1.0000      -0.331484        -9.0201
  89   1.0000      -0.328243        -8.9319
  90   1.0000      -0.324346        -8.8259
  91   1.0000      -0.318626        -8.6703
  92   1.0000      -0.316494        -8.6122
  93   1.0000      -0.315904        -8.5962
  94   1.0000      -0.315281        -8.5792
  95   1.0000      -0.313857        -8.5405
  96   1.0000      -0.308461        -8.3936
  97   1.0000      -0.305783        -8.3208
  98   1.0000      -0.302922        -8.2429
  99   1.0000      -0.300520        -8.1776
 100   1.0000      -0.300115        -8.1665
 101   1.0000      -0.294933        -8.0255
 102   1.0000      -0.292747        -7.9660
 103   1.0000      -0.290485        -7.9045
 104   1.0000      -0.289372        -7.8742
 105   1.0000      -0.288175        -7.8417
 106   1.0000      -0.285936        -7.7807
 107   1.0000      -0.282847        -7.6967
 108   1.0000      -0.281254        -7.6533
 109   1.0000      -0.281143        -7.6503
 110   1.0000      -0.279803        -7.6138
 111   1.0000      -0.279408        -7.6031
 112   1.0000      -0.275794        -7.5047
 113   1.0000      -0.274168        -7.4605
 114   1.0000      -0.273879        -7.4526
 115   1.0000      -0.269557        -7.3350
 116   1.0000      -0.268719        -7.3122
 117   1.0000      -0.266903        -7.2628
 118   1.0000      -0.265778        -7.2322
 119   1.0000      -0.265629        -7.2281
 120   1.0000      -0.262606        -7.1459
 121   1.0000      -0.262576        -7.1451
 122   1.0000      -0.261973        -7.1286
 123   1.0000      -0.261678        -7.1206
 124   1.0000      -0.260114        -7.0781
 125   1.0000      -0.259329        -7.0567
 126   1.0000      -0.258170        -7.0252
 127   1.0000      -0.256313        -6.9746
 128   1.0000      -0.256254        -6.9730
 129   1.0000      -0.254118        -6.9149
 130   1.0000      -0.253785        -6.9058
 131   1.0000      -0.251784        -6.8514
 132   1.0000      -0.249965        -6.8019
 133   1.0000      -0.249738        -6.7957
 134   1.0000      -0.248332        -6.7575
 135   1.0000      -0.243975        -6.6389
 136   1.0000      -0.242903        -6.6097
 137   1.0000      -0.238912        -6.5011
 138   1.0000      -0.230036        -6.2596
 139   1.0000      -0.224672        -6.1136
 140   1.0000      -0.218858        -5.9554
 141   1.0000      -0.209353        -5.6968
 142   1.0000      -0.206715        -5.6250
 143   1.0000      -0.177015        -4.8168
 144   0.0000      -0.144833        -3.9411
 145   0.0000      -0.142146        -3.8680
 146   0.0000      -0.136432        -3.7125
 147   0.0000      -0.130280        -3.5451
 148   0.0000      -0.129833        -3.5329

MULLIKEN ATOMIC CHARGES AND SPIN POPULATIONS
--------------------------------------------
   0 Au:    0.187721   -0.049082
   1 Au:    0.137657   -0.067397
   2 Au:    0.353852   -0.013966
   3 Au:    0.099722   -0.068348
   4 Au:    0.209159   -0.158184
   5 Au:    0.100452   -0.070489
   6 Au:    0.189094   -0.052503
   7 Au:    0.139448   -0.063605
   8 Au:    0.191534    0.036728
   9 Au:    0.318935   -0.094775
  10 Au:    0.066882   -0.245281
  11 Au:    0.320691   -0.094843
  12 Au:    0.191155    0.035382
  13 Au:   -0.086136   -0.159859
  14 Mn:   -2.420166    4.066222
Sum of atomic charges         :   -0.0000000

LOEWDIN ATOMIC CHARGES AND SPIN POPULATIONS
-------------------------------------------
   0 Au:    0.035059   -0.039849
   1 Au:    0.028334   -0.094985
   2 Au:    0.084358   -0.051251
   3 Au:    0.013799   -0.056784
   4 Au:    0.049224   -0.114765
   5 Au:    0.014690   -0.057868
   6 Au:    0.035701   -0.041277
   7 Au:    0.029083   -0.093856
   8 Au:    0.055427   -0.051443
   9 Au:    0.071929   -0.125100
  10 Au:   -0.012778   -0.120259
  11 Au:    0.073430   -0.126359
  12 Au:    0.054528   -0.051772
  13 Au:   -0.022620   -0.097696
  14 Mn:   -0.510163    4.123265

  Mayer bond orders larger than 0.100000
B(  0-Au,  2-Au) :   0.2670 B(  0-Au,  3-Au) :   0.2114 B(  0-Au,  6-Au) :   0.1626
B(  0-Au, 12-Au) :   0.3451 B(  0-Au, 14-Mn) :   0.4411 B(  1-Au,  3-Au) :   0.2935
B(  1-Au,  4-Au) :   0.2078 B(  1-Au, 11-Au) :   0.3171 B(  1-Au, 13-Au) :   0.2091
B(  1-Au, 14-Mn) :   0.4235 B(  2-Au,  3-Au) :   0.3087 B(  2-Au,  5-Au) :   0.3089
B(  2-Au,  6-Au) :   0.2680 B(  3-Au,  4-Au) :   0.2143 B(  3-Au,  5-Au) :   0.1433
B(  3-Au, 14-Mn) :   0.3846 B(  4-Au,  5-Au) :   0.2135 B(  4-Au,  7-Au) :   0.2066
B(  4-Au, 13-Au) :   0.2235 B(  4-Au, 14-Mn) :   0.3953 B(  5-Au,  6-Au) :   0.2103
B(  5-Au,  7-Au) :   0.2925 B(  5-Au, 14-Mn) :   0.3861 B(  6-Au,  8-Au) :   0.3430
B(  6-Au, 14-Mn) :   0.4417 B(  7-Au,  9-Au) :   0.3168 B(  7-Au, 13-Au) :   0.2104
B(  7-Au, 14-Mn) :   0.4233 B(  8-Au,  9-Au) :   0.2502 B(  8-Au, 10-Au) :   0.2225
B(  8-Au, 14-Mn) :   0.4562 B(  9-Au, 10-Au) :   0.2761 B(  9-Au, 13-Au) :   0.2890
B(  9-Au, 14-Mn) :   0.1145 B( 10-Au, 11-Au) :   0.2772 B( 10-Au, 12-Au) :   0.2207
B( 10-Au, 13-Au) :   0.1889 B( 10-Au, 14-Mn) :   0.4004 B( 11-Au, 12-Au) :   0.2502
B( 11-Au, 13-Au) :   0.2891 B( 11-Au, 14-Mn) :   0.1127 B( 12-Au, 14-Mn) :   0.4552
B( 13-Au, 14-Mn) :   0.3789

FINAL SINGLE POINT ENERGY     -3052.360101662020

DIPOLE MOMENT
-------------
                                X             Y             Z
Electronic contribution:     -9.85109      -0.14935       1.42502
Nuclear contribution   :      9.74624       0.07932      -1.36131
                        -----------------------------------------
Total Dipole Moment    :     -0.10485      -0.07003       0.06371
                        -----------------------------------------
Magnitude (a.u.)       :      0.14127
Magnitude (Debye)      :      0.35908

Rotational constants in cm-1:     0.001241     0.000935     0.000872
Rotational constants in MHz :    37.214731    28.044572    26.150102

                             ****ORCA TERMINATED NORMALLY****
TOTAL RUN TIME: 0 days 0 hours 8 minutes 5 seconds 228 msec
