                         Program Version 5.0.3 -  RELEASE  -
|  1> !R2SCAN def2-TZVP VERYSLOWCONV
|  2> !KDIIS
|  3> %scf
|  4>   AutoTRAHIter 200
|  5>   maxiter 400
|  6> end
|  7>
|  8> %pal nprocs 6 end
|  9>
| 10> *xyzfile 0 6 pbe.xyz
| 11>
| 12> $new_job
| 13>
| 14> !R2SCAN def2-TZVP VERYSLOWCONV
| 15> !KDIIS
| 16> %scf
| 17>   AutoTRAHIter 200
| 18>   maxiter 400
| 19> end
| 20>
| 21>
| 22> %pal nprocs 6 end
| 23>
| 24> *xyzfile 0 4 pbe.xyz
| 25>
| 26>
| 27>
| 28>
| 29>
| 30>                          ****END OF INPUT****
 Total Charge           Charge          ....    0
 Multiplicity           Mult            ....    6
 Number of Electrons    NEL             ....  291
FINAL SINGLE POINT ENERGY     -3052.879307430340

CARTESIAN COORDINATES (ANGSTROEM)
---------------------------------
  Au    10.351422    6.120328    6.482670
  Au     6.299229    6.109645    6.135402
  Au    10.555741    5.004578    9.047429
  Au     8.138866    4.780001    7.697212
  Au     6.103956    6.180445    8.890519
  Au     8.512822    6.522542   10.160926
  Au    10.715059    7.796461    8.847078
  Au     6.849840    8.687263    9.784962
  Au     9.372806   10.027895    8.314208
  Au     6.691152   10.930439    8.145665
  Au     7.981644    9.953747    5.935514
  Au     6.146961    8.423550    4.595859
  Au     8.837420    7.568703    4.848143
  Au     5.536884    8.559329    7.295741
  Mn     8.273713    7.621096    7.547085

 Multiplicity           Mult            ....    4
 Number of Electrons    NEL             ....  291
 Basis Dimension        Dim             ....  605

ORBITAL ENERGIES
----------------
                 SPIN UP ORBITALS
  NO   OCC          E(Eh)            E(eV)
   0   1.0000    -235.047742     -6395.9742
   1   1.0000     -27.224532      -740.8172
   2   1.0000     -23.272479      -633.2764
   3   1.0000     -23.271149      -633.2402
   4   1.0000     -23.269977      -633.2083
   5   1.0000      -4.124951      -112.2456
   6   1.0000      -4.123573      -112.2081
   7   1.0000      -4.123088      -112.1949
   8   1.0000      -4.121332      -112.1471
   9   1.0000      -4.121304      -112.1464
  10   1.0000      -4.120598      -112.1272
  11   1.0000      -4.120416      -112.1222
  12   1.0000      -4.118527      -112.0708
  13   1.0000      -4.115863      -111.9983
  14   1.0000      -4.115762      -111.9956
  15   1.0000      -4.114249      -111.9544
  16   1.0000      -4.114209      -111.9533
  17   1.0000      -4.113896      -111.9448
  18   1.0000      -4.113738      -111.9405
  19   1.0000      -3.247401       -88.3663
  20   1.0000      -2.312763       -62.9335
  21   1.0000      -2.312644       -62.9302
  22   1.0000      -2.312579       -62.9285
  23   1.0000      -2.312310       -62.9212
  24   1.0000      -2.312205       -62.9183
  25   1.0000      -2.310228       -62.8645
  26   1.0000      -2.309933       -62.8565
  27   1.0000      -2.309355       -62.8407
  28   1.0000      -2.309021       -62.8316
  29   1.0000      -2.308763       -62.8246
  30   1.0000      -2.307886       -62.8008
  31   1.0000      -2.307732       -62.7966
  32   1.0000      -2.307336       -62.7858
  33   1.0000      -2.307094       -62.7792
  34   1.0000      -2.307053       -62.7781
  35   1.0000      -2.306993       -62.7765
  36   1.0000      -2.306772       -62.7705
  37   1.0000      -2.305651       -62.7399
  38   1.0000      -2.305417       -62.7336
  39   1.0000      -2.304413       -62.7063
  40   1.0000      -2.304293       -62.7030
  41   1.0000      -2.303609       -62.6844
  42   1.0000      -2.303266       -62.6751
  43   1.0000      -2.303167       -62.6724
  44   1.0000      -2.302432       -62.6524
  45   1.0000      -2.302252       -62.6475
  46   1.0000      -2.302136       -62.6443
  47   1.0000      -2.301610       -62.6300
  48   1.0000      -2.301132       -62.6170
  49   1.0000      -2.300865       -62.6097
  50   1.0000      -2.300795       -62.6078
  51   1.0000      -2.300775       -62.6073
  52   1.0000      -2.299874       -62.5828
  53   1.0000      -2.299734       -62.5789
  54   1.0000      -2.299341       -62.5682
  55   1.0000      -2.299053       -62.5604
  56   1.0000      -2.297711       -62.5239
  57   1.0000      -2.297560       -62.5198
  58   1.0000      -2.297393       -62.5153
  59   1.0000      -2.296229       -62.4836
  60   1.0000      -2.294042       -62.4240
  61   1.0000      -2.293963       -62.4219
  62   1.0000      -2.106533       -57.3217
  63   1.0000      -2.103578       -57.2413
  64   1.0000      -2.101697       -57.1901
  65   1.0000      -0.435302       -11.8452
  66   1.0000      -0.397114       -10.8060
  67   1.0000      -0.394053       -10.7227
  68   1.0000      -0.390920       -10.6375
  69   1.0000      -0.384132       -10.4528
  70   1.0000      -0.382478       -10.4078
  71   1.0000      -0.379535       -10.3277
  72   1.0000      -0.374914       -10.2019
  73   1.0000      -0.373577       -10.1656
  74   1.0000      -0.372193       -10.1279
  75   1.0000      -0.364089        -9.9074
  76   1.0000      -0.362763        -9.8713
  77   1.0000      -0.358317        -9.7503
  78   1.0000      -0.357957        -9.7405
  79   1.0000      -0.356697        -9.7062
  80   1.0000      -0.355373        -9.6702
  81   1.0000      -0.353084        -9.6079
  82   1.0000      -0.352565        -9.5938
  83   1.0000      -0.350050        -9.5254
  84   1.0000      -0.348650        -9.4872
  85   1.0000      -0.348427        -9.4812
  86   1.0000      -0.344667        -9.3789
  87   1.0000      -0.343060        -9.3351
  88   1.0000      -0.341456        -9.2915
  89   1.0000      -0.340923        -9.2770
  90   1.0000      -0.339322        -9.2334
  91   1.0000      -0.335620        -9.1327
  92   1.0000      -0.332119        -9.0374
  93   1.0000      -0.326634        -8.8882
  94   1.0000      -0.326223        -8.8770
  95   1.0000      -0.325349        -8.8532
  96   1.0000      -0.319456        -8.6928
  97   1.0000      -0.318941        -8.6788
  98   1.0000      -0.314257        -8.5514
  99   1.0000      -0.313554        -8.5322
 100   1.0000      -0.310281        -8.4432
 101   1.0000      -0.306614        -8.3434
 102   1.0000      -0.304229        -8.2785
 103   1.0000      -0.304014        -8.2726
 104   1.0000      -0.301351        -8.2002
 105   1.0000      -0.298048        -8.1103
 106   1.0000      -0.297539        -8.0964
 107   1.0000      -0.295476        -8.0403
 108   1.0000      -0.290208        -7.8970
 109   1.0000      -0.290166        -7.8958
 110   1.0000      -0.288332        -7.8459
 111   1.0000      -0.287813        -7.8318
 112   1.0000      -0.285689        -7.7740
 113   1.0000      -0.282493        -7.6870
 114   1.0000      -0.280556        -7.6343
 115   1.0000      -0.280423        -7.6307
 116   1.0000      -0.277671        -7.5558
 117   1.0000      -0.276100        -7.5131
 118   1.0000      -0.274709        -7.4752
 119   1.0000      -0.274587        -7.4719
 120   1.0000      -0.273580        -7.4445
 121   1.0000      -0.272239        -7.4080
 122   1.0000      -0.271623        -7.3912
 123   1.0000      -0.270820        -7.3694
 124   1.0000      -0.268949        -7.3185
 125   1.0000      -0.268265        -7.2999
 126   1.0000      -0.267428        -7.2771
 127   1.0000      -0.266899        -7.2627
 128   1.0000      -0.265620        -7.2279
 129   1.0000      -0.264689        -7.2025
 130   1.0000      -0.262604        -7.1458
 131   1.0000      -0.261540        -7.1169
 132   1.0000      -0.260457        -7.0874
 133   1.0000      -0.260010        -7.0752
 134   1.0000      -0.258919        -7.0456
 135   1.0000      -0.257730        -7.0132
 136   1.0000      -0.256070        -6.9680
 137   1.0000      -0.255523        -6.9531
 138   1.0000      -0.251884        -6.8541
 139   1.0000      -0.248665        -6.7665
 140   1.0000      -0.248509        -6.7623
 141   1.0000      -0.247346        -6.7306
 142   1.0000      -0.242164        -6.5896
 143   1.0000      -0.235374        -6.4049
 144   1.0000      -0.222458        -6.0534
 145   1.0000      -0.214163        -5.8277
 146   1.0000      -0.197525        -5.3749
 147   0.0000      -0.193605        -5.2683
 148   0.0000      -0.161599        -4.3973
 149   0.0000      -0.137781        -3.7492
 150   0.0000      -0.133741        -3.6393
 151   0.0000      -0.131390        -3.5753

                 SPIN DOWN ORBITALS
  NO   OCC          E(Eh)            E(eV)
   0   1.0000    -235.046736     -6395.9469
   1   1.0000     -27.135616      -738.3977
   2   1.0000     -23.203962      -631.4119
   3   1.0000     -23.203280      -631.3934
   4   1.0000     -23.201782      -631.3526
   5   1.0000      -4.125815      -112.2691
   6   1.0000      -4.124122      -112.2231
   7   1.0000      -4.123672      -112.2108
   8   1.0000      -4.121573      -112.1537
   9   1.0000      -4.121540      -112.1528
  10   1.0000      -4.121113      -112.1412
  11   1.0000      -4.120928      -112.1362
  12   1.0000      -4.119389      -112.0943
  13   1.0000      -4.115696      -111.9938
  14   1.0000      -4.115603      -111.9912
  15   1.0000      -4.115405      -111.9859
  16   1.0000      -4.115233      -111.9812
  17   1.0000      -4.114274      -111.9551
  18   1.0000      -4.114228      -111.9538
  19   1.0000      -3.035087       -82.5889
  20   1.0000      -2.313859       -62.9633
  21   1.0000      -2.313337       -62.9491
  22   1.0000      -2.313046       -62.9412
  23   1.0000      -2.312945       -62.9384
  24   1.0000      -2.312507       -62.9265
  25   1.0000      -2.310685       -62.8769
  26   1.0000      -2.310024       -62.8590
  27   1.0000      -2.309776       -62.8522
  28   1.0000      -2.309432       -62.8429
  29   1.0000      -2.309139       -62.8349
  30   1.0000      -2.308329       -62.8128
  31   1.0000      -2.308217       -62.8098
  32   1.0000      -2.307535       -62.7912
  33   1.0000      -2.307476       -62.7896
  34   1.0000      -2.306818       -62.7717
  35   1.0000      -2.306804       -62.7713
  36   1.0000      -2.306396       -62.7602
  37   1.0000      -2.306036       -62.7504
  38   1.0000      -2.305756       -62.7428
  39   1.0000      -2.305131       -62.7258
  40   1.0000      -2.304994       -62.7221
  41   1.0000      -2.304174       -62.6998
  42   1.0000      -2.304068       -62.6969
  43   1.0000      -2.303592       -62.6839
  44   1.0000      -2.302939       -62.6662
  45   1.0000      -2.302758       -62.6612
  46   1.0000      -2.302224       -62.6467
  47   1.0000      -2.301836       -62.6361
  48   1.0000      -2.301581       -62.6292
  49   1.0000      -2.301492       -62.6268
  50   1.0000      -2.301328       -62.6223
  51   1.0000      -2.301056       -62.6149
  52   1.0000      -2.300695       -62.6051
  53   1.0000      -2.300334       -62.5953
  54   1.0000      -2.300064       -62.5879
  55   1.0000      -2.300023       -62.5868
  56   1.0000      -2.298722       -62.5514
  57   1.0000      -2.298570       -62.5473
  58   1.0000      -2.297643       -62.5220
  59   1.0000      -2.296395       -62.4881
  60   1.0000      -2.294515       -62.4369
  61   1.0000      -2.294421       -62.4344
  62   1.0000      -1.894534       -51.5529
  63   1.0000      -1.893385       -51.5216
  64   1.0000      -1.890825       -51.4520
  65   1.0000      -0.431572       -11.7437
  66   1.0000      -0.398162       -10.8345
  67   1.0000      -0.392823       -10.6893
  68   1.0000      -0.390356       -10.6221
  69   1.0000      -0.381668       -10.3857
  70   1.0000      -0.379423       -10.3246
  71   1.0000      -0.377929       -10.2840
  72   1.0000      -0.371233       -10.1018
  73   1.0000      -0.370493       -10.0816
  74   1.0000      -0.367936       -10.0120
  75   1.0000      -0.365496        -9.9457
  76   1.0000      -0.363255        -9.8847
  77   1.0000      -0.359822        -9.7912
  78   1.0000      -0.357633        -9.7317
  79   1.0000      -0.356695        -9.7062
  80   1.0000      -0.356008        -9.6875
  81   1.0000      -0.353927        -9.6308
  82   1.0000      -0.351938        -9.5767
  83   1.0000      -0.348935        -9.4950
  84   1.0000      -0.347583        -9.4582
  85   1.0000      -0.345699        -9.4069
  86   1.0000      -0.344875        -9.3845
  87   1.0000      -0.342148        -9.3103
  88   1.0000      -0.340978        -9.2785
  89   1.0000      -0.337570        -9.1858
  90   1.0000      -0.333955        -9.0874
  91   1.0000      -0.327908        -8.9228
  92   1.0000      -0.326146        -8.8749
  93   1.0000      -0.325474        -8.8566
  94   1.0000      -0.324574        -8.8321
  95   1.0000      -0.323138        -8.7930
  96   1.0000      -0.317545        -8.6408
  97   1.0000      -0.315047        -8.5729
  98   1.0000      -0.312275        -8.4974
  99   1.0000      -0.309696        -8.4273
 100   1.0000      -0.309423        -8.4198
 101   1.0000      -0.304154        -8.2765
 102   1.0000      -0.301687        -8.2093
 103   1.0000      -0.299580        -8.1520
 104   1.0000      -0.298315        -8.1176
 105   1.0000      -0.297102        -8.0845
 106   1.0000      -0.294806        -8.0221
 107   1.0000      -0.291735        -7.9385
 108   1.0000      -0.290003        -7.8914
 109   1.0000      -0.289861        -7.8875
 110   1.0000      -0.288480        -7.8499
 111   1.0000      -0.288164        -7.8413
 112   1.0000      -0.284471        -7.7409
 113   1.0000      -0.282762        -7.6943
 114   1.0000      -0.282488        -7.6869
 115   1.0000      -0.278363        -7.5747
 116   1.0000      -0.277470        -7.5503
 117   1.0000      -0.275484        -7.4963
 118   1.0000      -0.274267        -7.4632
 119   1.0000      -0.274133        -7.4595
 120   1.0000      -0.270960        -7.3732
 121   1.0000      -0.270933        -7.3725
 122   1.0000      -0.270347        -7.3565
 123   1.0000      -0.269924        -7.3450
 124   1.0000      -0.268512        -7.3066
 125   1.0000      -0.267646        -7.2830
 126   1.0000      -0.266503        -7.2519
 127   1.0000      -0.264591        -7.1999
 128   1.0000      -0.264126        -7.1872
 129   1.0000      -0.262271        -7.1368
 130   1.0000      -0.261900        -7.1267
 131   1.0000      -0.259838        -7.0705
 132   1.0000      -0.257257        -7.0003
 133   1.0000      -0.256933        -6.9915
 134   1.0000      -0.255202        -6.9444
 135   1.0000      -0.251325        -6.8389
 136   1.0000      -0.250120        -6.8061
 137   1.0000      -0.246080        -6.6962
 138   1.0000      -0.236882        -6.4459
 139   1.0000      -0.227123        -6.1803
 140   1.0000      -0.221455        -6.0261
 141   1.0000      -0.211800        -5.7634
 142   1.0000      -0.208563        -5.6753
 143   1.0000      -0.176681        -4.8077
 144   0.0000      -0.139433        -3.7942
 145   0.0000      -0.138246        -3.7619
 146   0.0000      -0.132690        -3.6107
 147   0.0000      -0.125749        -3.4218
 148   0.0000      -0.121119        -3.2958

MULLIKEN ATOMIC CHARGES AND SPIN POPULATIONS
--------------------------------------------
   0 Au:    0.168945   -0.063595
   1 Au:    0.119688   -0.082092
   2 Au:    0.319007   -0.011121
   3 Au:    0.088907   -0.079768
   4 Au:    0.191688   -0.184975
   5 Au:    0.089393   -0.081120
   6 Au:    0.170127   -0.066100
   7 Au:    0.121380   -0.078952
   8 Au:    0.165503    0.033264
   9 Au:    0.286441   -0.106505
  10 Au:    0.063381   -0.280268
  11 Au:    0.288326   -0.105894
  12 Au:    0.164890    0.032741
  13 Au:   -0.078954   -0.175078
  14 Mn:   -2.158723    4.249461
Sum of atomic charges         :   -0.0000000

LOEWDIN ATOMIC CHARGES AND SPIN POPULATIONS
-------------------------------------------
   0 Au:    0.028327   -0.050066
   1 Au:    0.021086   -0.109677
   2 Au:    0.082157   -0.053056
   3 Au:    0.008881   -0.065302
   4 Au:    0.044526   -0.131459
   5 Au:    0.009611   -0.065975
   6 Au:    0.028846   -0.051048
   7 Au:    0.021845   -0.108819
   8 Au:    0.046806   -0.061517
   9 Au:    0.068817   -0.136840
  10 Au:   -0.017013   -0.138525
  11 Au:    0.070054   -0.137187
  12 Au:    0.045870   -0.061542
  13 Au:   -0.025816   -0.110960
  14 Mn:   -0.433997    4.281972

  Mayer bond orders larger than 0.100000
B(  0-Au,  2-Au) :   0.2539 B(  0-Au,  3-Au) :   0.1957 B(  0-Au,  6-Au) :   0.1352
B(  0-Au, 12-Au) :   0.3564 B(  0-Au, 14-Mn) :   0.4371 B(  1-Au,  3-Au) :   0.3032
B(  1-Au,  4-Au) :   0.1929 B(  1-Au, 11-Au) :   0.3114 B(  1-Au, 13-Au) :   0.1904
B(  1-Au, 14-Mn) :   0.4097 B(  2-Au,  3-Au) :   0.2980 B(  2-Au,  5-Au) :   0.2981
B(  2-Au,  6-Au) :   0.2549 B(  3-Au,  4-Au) :   0.1990 B(  3-Au,  5-Au) :   0.1224
B(  3-Au, 14-Mn) :   0.3708 B(  4-Au,  5-Au) :   0.1983 B(  4-Au,  7-Au) :   0.1918
B(  4-Au, 13-Au) :   0.2175 B(  4-Au, 14-Mn) :   0.3900 B(  5-Au,  6-Au) :   0.1942
B(  5-Au,  7-Au) :   0.3027 B(  5-Au, 14-Mn) :   0.3724 B(  6-Au,  8-Au) :   0.3547
B(  6-Au, 14-Mn) :   0.4379 B(  7-Au,  9-Au) :   0.3111 B(  7-Au, 13-Au) :   0.1912
B(  7-Au, 14-Mn) :   0.4096 B(  8-Au,  9-Au) :   0.2338 B(  8-Au, 10-Au) :   0.2062
B(  8-Au, 14-Mn) :   0.4684 B(  9-Au, 10-Au) :   0.2616 B(  9-Au, 13-Au) :   0.2792
B(  9-Au, 14-Mn) :   0.1029 B( 10-Au, 11-Au) :   0.2627 B( 10-Au, 12-Au) :   0.2048
B( 10-Au, 13-Au) :   0.1689 B( 10-Au, 14-Mn) :   0.3771 B( 11-Au, 12-Au) :   0.2341
B( 11-Au, 13-Au) :   0.2792 B( 11-Au, 14-Mn) :   0.1011 B( 12-Au, 14-Mn) :   0.4672
B( 13-Au, 14-Mn) :   0.3609

FINAL SINGLE POINT ENERGY     -3052.859029007951

DIPOLE MOMENT
-------------
                                X             Y             Z
Electronic contribution:     -9.85275      -0.15521       1.43017
Nuclear contribution   :      9.74624       0.07932      -1.36131
                        -----------------------------------------
Total Dipole Moment    :     -0.10651      -0.07589       0.06886
                        -----------------------------------------
Magnitude (a.u.)       :      0.14780
Magnitude (Debye)      :      0.37567

Rotational constants in cm-1:     0.001241     0.000935     0.000872
Rotational constants in MHz :    37.214731    28.044572    26.150102

                             ****ORCA TERMINATED NORMALLY****
TOTAL RUN TIME: 0 days 0 hours 12 minutes 38 seconds 854 msec
