                         Program Version 5.0.3 -  RELEASE  -
|  1> %pal nprocs 1 end
|  2>
|  3> !PBE def2-TZVP OPT UNO
|  4> !SLOWCONV KDIIS
|  5>
|  6> %geom maxiter 300 end
|  7>
|  8> *xyzfile 0 3 6.xyz                           ****END OF INPUT****
 Total Charge           Charge          ....    0
 Multiplicity           Mult            ....    3
 Number of Electrons    NEL             ....  216
FINAL SINGLE POINT ENERGY     -2621.719663760422
FINAL SINGLE POINT ENERGY     -2621.720598740772
FINAL SINGLE POINT ENERGY     -2621.721313913224
FINAL SINGLE POINT ENERGY     -2621.721975817019
FINAL SINGLE POINT ENERGY     -2621.723071619869
FINAL SINGLE POINT ENERGY     -2621.723681194691
FINAL SINGLE POINT ENERGY     -2621.723807333199
FINAL SINGLE POINT ENERGY     -2621.723918209297
FINAL SINGLE POINT ENERGY     -2621.724082360140
FINAL SINGLE POINT ENERGY     -2621.724291785185
FINAL SINGLE POINT ENERGY     -2621.730128478790
FINAL SINGLE POINT ENERGY     -2621.730141131375
FINAL SINGLE POINT ENERGY     -2621.730147544602
FINAL SINGLE POINT ENERGY     -2621.730154445789
FINAL SINGLE POINT ENERGY     -2621.730157715900
FINAL SINGLE POINT ENERGY     -2621.730159139222
FINAL SINGLE POINT ENERGY     -2621.730160507397
FINAL SINGLE POINT ENERGY     -2621.730161523731
FINAL SINGLE POINT ENERGY     -2621.730162026420
                    ***********************HURRAY********************

CARTESIAN COORDINATES (ANGSTROEM)
---------------------------------
  Au     8.929959    6.709618    8.749690
  Au     6.368592    5.231528    5.292773
  Au     6.262656    5.691608    7.984700
  Au     8.311682    9.042938   10.333704
  Au     5.156615   10.036419    7.206543
  Au     6.518748    6.915907   10.368123
  Au     8.222391    7.144849    6.055139
  Au     5.321540    7.638059    6.088794
  Au     9.212074    9.254286    7.450155
  Au     7.287694   10.929441    8.684398
  Fe     6.874256    8.315464    8.145347

 Multiplicity           Mult            ....    3
 Number of Electrons    NEL             ....  216
 Basis Dimension        Dim             ....  445

ORBITAL ENERGIES
----------------
                 SPIN UP ORBITALS
  NO   OCC          E(Eh)            E(eV)
   0   1.0000    -254.746653     -6932.0088
   1   1.0000     -29.584304      -805.0298
   2   1.0000     -25.523649      -694.5338
   3   1.0000     -25.519546      -694.4222
   4   1.0000     -25.516548      -694.3406
   5   1.0000      -4.025982      -109.5525
   6   1.0000      -4.023831      -109.4940
   7   1.0000      -4.023141      -109.4752
   8   1.0000      -4.021673      -109.4353
   9   1.0000      -4.018789      -109.3568
  10   1.0000      -4.018285      -109.3431
  11   1.0000      -4.017614      -109.3248
  12   1.0000      -4.015982      -109.2804
  13   1.0000      -4.015347      -109.2631
  14   1.0000      -4.012332      -109.1811
  15   1.0000      -3.360349       -91.4398
  16   1.0000      -2.244211       -61.0681
  17   1.0000      -2.242147       -61.0119
  18   1.0000      -2.241102       -60.9835
  19   1.0000      -2.240294       -60.9615
  20   1.0000      -2.238100       -60.9018
  21   1.0000      -2.237917       -60.8968
  22   1.0000      -2.236165       -60.8492
  23   1.0000      -2.235159       -60.8218
  24   1.0000      -2.234955       -60.8162
  25   1.0000      -2.234140       -60.7940
  26   1.0000      -2.234029       -60.7910
  27   1.0000      -2.233686       -60.7817
  28   1.0000      -2.233204       -60.7686
  29   1.0000      -2.232675       -60.7542
  30   1.0000      -2.232331       -60.7448
  31   1.0000      -2.232013       -60.7362
  32   1.0000      -2.231654       -60.7264
  33   1.0000      -2.230677       -60.6998
  34   1.0000      -2.230585       -60.6973
  35   1.0000      -2.229874       -60.6780
  36   1.0000      -2.229496       -60.6677
  37   1.0000      -2.228797       -60.6486
  38   1.0000      -2.228406       -60.6380
  39   1.0000      -2.227959       -60.6258
  40   1.0000      -2.227676       -60.6182
  41   1.0000      -2.227110       -60.6028
  42   1.0000      -2.225492       -60.5587
  43   1.0000      -2.225217       -60.5512
  44   1.0000      -2.224373       -60.5283
  45   1.0000      -2.218976       -60.3814
  46   1.0000      -2.181877       -59.3719
  47   1.0000      -2.173261       -59.1374
  48   1.0000      -2.167193       -58.9723
  49   1.0000      -0.416954       -11.3459
  50   1.0000      -0.382407       -10.4058
  51   1.0000      -0.374032       -10.1779
  52   1.0000      -0.367690       -10.0054
  53   1.0000      -0.361885        -9.8474
  54   1.0000      -0.356526        -9.7016
  55   1.0000      -0.352223        -9.5845
  56   1.0000      -0.345303        -9.3962
  57   1.0000      -0.342693        -9.3252
  58   1.0000      -0.336203        -9.1486
  59   1.0000      -0.334483        -9.1018
  60   1.0000      -0.331778        -9.0281
  61   1.0000      -0.328022        -8.9259
  62   1.0000      -0.326533        -8.8854
  63   1.0000      -0.324299        -8.8246
  64   1.0000      -0.323745        -8.8095
  65   1.0000      -0.321052        -8.7363
  66   1.0000      -0.318403        -8.6642
  67   1.0000      -0.315669        -8.5898
  68   1.0000      -0.310719        -8.4551
  69   1.0000      -0.304994        -8.2993
  70   1.0000      -0.304148        -8.2763
  71   1.0000      -0.301591        -8.2067
  72   1.0000      -0.299027        -8.1369
  73   1.0000      -0.295529        -8.0418
  74   1.0000      -0.291975        -7.9450
  75   1.0000      -0.287639        -7.8270
  76   1.0000      -0.285279        -7.7628
  77   1.0000      -0.284257        -7.7350
  78   1.0000      -0.280538        -7.6338
  79   1.0000      -0.277889        -7.5618
  80   1.0000      -0.277797        -7.5592
  81   1.0000      -0.274383        -7.4663
  82   1.0000      -0.272081        -7.4037
  83   1.0000      -0.270804        -7.3689
  84   1.0000      -0.268873        -7.3164
  85   1.0000      -0.266522        -7.2524
  86   1.0000      -0.265089        -7.2134
  87   1.0000      -0.262238        -7.1358
  88   1.0000      -0.261963        -7.1284
  89   1.0000      -0.260243        -7.0816
  90   1.0000      -0.258680        -7.0390
  91   1.0000      -0.257286        -7.0011
  92   1.0000      -0.255474        -6.9518
  93   1.0000      -0.253992        -6.9115
  94   1.0000      -0.253121        -6.8878
  95   1.0000      -0.251260        -6.8371
  96   1.0000      -0.248257        -6.7554
  97   1.0000      -0.247522        -6.7354
  98   1.0000      -0.243337        -6.6215
  99   1.0000      -0.241561        -6.5732
 100   1.0000      -0.240013        -6.5311
 101   1.0000      -0.239247        -6.5102
 102   1.0000      -0.235788        -6.4161
 103   1.0000      -0.234244        -6.3741
 104   1.0000      -0.233426        -6.3519
 105   1.0000      -0.231317        -6.2945
 106   1.0000      -0.229193        -6.2367
 107   1.0000      -0.224046        -6.0966
 108   1.0000      -0.200165        -5.4468
 109   0.0000      -0.171287        -4.6610
 110   0.0000      -0.157040        -4.2733
 111   0.0000      -0.150721        -4.1013
 112   0.0000      -0.131878        -3.5886
 113   0.0000      -0.107227        -2.9178

                 SPIN DOWN ORBITALS
  NO   OCC          E(Eh)            E(eV)
   0   1.0000    -254.745978     -6931.9905
   1   1.0000     -29.528563      -803.5130
   2   1.0000     -25.480209      -693.3517
   3   1.0000     -25.477620      -693.2813
   4   1.0000     -25.475605      -693.2264
   5   1.0000      -4.026012      -109.5534
   6   1.0000      -4.023910      -109.4962
   7   1.0000      -4.023175      -109.4762
   8   1.0000      -4.022231      -109.4505
   9   1.0000      -4.018913      -109.3602
  10   1.0000      -4.018616      -109.3521
  11   1.0000      -4.018574      -109.3510
  12   1.0000      -4.016342      -109.2902
  13   1.0000      -4.015566      -109.2691
  14   1.0000      -4.011853      -109.1681
  15   1.0000      -3.234325       -88.0105
  16   1.0000      -2.244066       -61.0641
  17   1.0000      -2.242185       -61.0129
  18   1.0000      -2.240928       -60.9787
  19   1.0000      -2.239914       -60.9512
  20   1.0000      -2.238040       -60.9002
  21   1.0000      -2.237615       -60.8886
  22   1.0000      -2.236164       -60.8491
  23   1.0000      -2.235493       -60.8308
  24   1.0000      -2.234928       -60.8155
  25   1.0000      -2.234746       -60.8105
  26   1.0000      -2.234491       -60.8036
  27   1.0000      -2.234049       -60.7916
  28   1.0000      -2.233741       -60.7832
  29   1.0000      -2.233229       -60.7693
  30   1.0000      -2.232841       -60.7587
  31   1.0000      -2.232433       -60.7476
  32   1.0000      -2.231865       -60.7321
  33   1.0000      -2.231065       -60.7104
  34   1.0000      -2.230157       -60.6857
  35   1.0000      -2.229921       -60.6792
  36   1.0000      -2.229698       -60.6732
  37   1.0000      -2.229014       -60.6546
  38   1.0000      -2.228926       -60.6522
  39   1.0000      -2.228538       -60.6416
  40   1.0000      -2.228421       -60.6384
  41   1.0000      -2.227474       -60.6126
  42   1.0000      -2.226217       -60.5784
  43   1.0000      -2.225249       -60.5521
  44   1.0000      -2.224813       -60.5402
  45   1.0000      -2.218285       -60.3626
  46   1.0000      -2.054190       -55.8973
  47   1.0000      -2.050859       -55.8067
  48   1.0000      -2.047145       -55.7056
  49   1.0000      -0.413843       -11.2612
  50   1.0000      -0.382370       -10.4048
  51   1.0000      -0.369931       -10.0663
  52   1.0000      -0.364134        -9.9086
  53   1.0000      -0.355467        -9.6728
  54   1.0000      -0.354773        -9.6539
  55   1.0000      -0.350273        -9.5314
  56   1.0000      -0.342009        -9.3065
  57   1.0000      -0.340422        -9.2633
  58   1.0000      -0.335238        -9.1223
  59   1.0000      -0.334519        -9.1027
  60   1.0000      -0.329965        -8.9788
  61   1.0000      -0.328942        -8.9510
  62   1.0000      -0.326124        -8.8743
  63   1.0000      -0.324450        -8.8287
  64   1.0000      -0.321433        -8.7466
  65   1.0000      -0.319144        -8.6843
  66   1.0000      -0.317196        -8.6313
  67   1.0000      -0.311621        -8.4796
  68   1.0000      -0.308516        -8.3951
  69   1.0000      -0.304537        -8.2869
  70   1.0000      -0.300276        -8.1709
  71   1.0000      -0.297367        -8.0918
  72   1.0000      -0.296062        -8.0562
  73   1.0000      -0.292340        -7.9550
  74   1.0000      -0.291920        -7.9436
  75   1.0000      -0.286176        -7.7873
  76   1.0000      -0.283626        -7.7178
  77   1.0000      -0.282321        -7.6823
  78   1.0000      -0.280496        -7.6327
  79   1.0000      -0.277552        -7.5526
  80   1.0000      -0.275320        -7.4918
  81   1.0000      -0.272434        -7.4133
  82   1.0000      -0.271670        -7.3925
  83   1.0000      -0.271010        -7.3746
  84   1.0000      -0.268588        -7.3086
  85   1.0000      -0.265757        -7.2316
  86   1.0000      -0.264902        -7.2083
  87   1.0000      -0.262206        -7.1350
  88   1.0000      -0.261588        -7.1182
  89   1.0000      -0.261194        -7.1075
  90   1.0000      -0.258606        -7.0370
  91   1.0000      -0.257897        -7.0177
  92   1.0000      -0.256212        -6.9719
  93   1.0000      -0.253924        -6.9096
  94   1.0000      -0.249840        -6.7985
  95   1.0000      -0.249076        -6.7777
  96   1.0000      -0.247909        -6.7460
  97   1.0000      -0.243803        -6.6342
  98   1.0000      -0.241255        -6.5649
  99   1.0000      -0.237201        -6.4546
 100   1.0000      -0.236687        -6.4406
 101   1.0000      -0.235798        -6.4164
 102   1.0000      -0.230577        -6.2743
 103   1.0000      -0.209225        -5.6933
 104   1.0000      -0.193054        -5.2533
 105   1.0000      -0.182225        -4.9586
 106   1.0000      -0.177773        -4.8375
 107   0.0000      -0.153984        -4.1901
 108   0.0000      -0.146982        -3.9996
 109   0.0000      -0.144581        -3.9343
 110   0.0000      -0.144178        -3.9233
 111   0.0000      -0.141911        -3.8616

MULLIKEN ATOMIC CHARGES AND SPIN POPULATIONS
--------------------------------------------
   0 Au:    0.199225   -0.146034
   1 Au:    0.359477   -0.007103
   2 Au:   -0.020930   -0.147803
   3 Au:    0.183463   -0.138580
   4 Au:    0.182369   -0.016927
   5 Au:    0.322382   -0.081781
   6 Au:   -0.013940   -0.058777
   7 Au:    0.049141   -0.140506
   8 Au:    0.269863   -0.078427
   9 Au:    0.209714   -0.105668
  10 Fe:   -1.740764    2.921606
Sum of atomic charges         :   -0.0000000

LOEWDIN ATOMIC CHARGES AND SPIN POPULATIONS
-------------------------------------------
   0 Au:    0.047498   -0.124060
   1 Au:    0.096611   -0.055200
   2 Au:   -0.016778   -0.098074
   3 Au:    0.018757   -0.120272
   4 Au:    0.109703   -0.066367
   5 Au:    0.129784   -0.127934
   6 Au:    0.001188   -0.058404
   7 Au:    0.003676   -0.088543
   8 Au:    0.077609   -0.080556
   9 Au:    0.042363   -0.110329
  10 Fe:   -0.510410    2.929739

  Mayer bond orders larger than 0.100000
B(  0-Au,  2-Au) :   0.1354 B(  0-Au,  3-Au) :   0.1707 B(  0-Au,  5-Au) :   0.1095
B(  0-Au,  6-Au) :   0.2379 B(  0-Au,  8-Au) :   0.1772 B(  0-Au, 10-Fe) :   0.6135
B(  1-Au,  2-Au) :   0.3887 B(  1-Au,  6-Au) :   0.3428 B(  1-Au,  7-Au) :   0.3526
B(  1-Au, 10-Fe) :   0.1070 B(  2-Au,  5-Au) :   0.3920 B(  2-Au,  6-Au) :   0.1365
B(  2-Au,  7-Au) :   0.1885 B(  2-Au, 10-Fe) :   0.5939 B(  3-Au,  5-Au) :   0.2243
B(  3-Au,  9-Au) :   0.3490 B(  3-Au, 10-Fe) :   0.5185 B(  4-Au,  7-Au) :   0.4026
B(  4-Au,  9-Au) :   0.2208 B(  4-Au, 10-Fe) :   0.6313 B(  5-Au, 10-Fe) :   0.5643
B(  6-Au,  7-Au) :   0.1759 B(  6-Au,  8-Au) :   0.3733 B(  6-Au, 10-Fe) :   0.5052
B(  7-Au, 10-Fe) :   0.5872 B(  8-Au,  9-Au) :   0.1948 B(  8-Au, 10-Fe) :   0.5504
B(  9-Au, 10-Fe) :   0.5366

FINAL SINGLE POINT ENERGY     -2621.730162243093

DIPOLE MOMENT
-------------
                                X             Y             Z
Electronic contribution:     10.91950     -17.50058     -12.35275
Nuclear contribution   :    -10.79292      17.27233      12.27037
                        -----------------------------------------
Total Dipole Moment    :      0.12657      -0.22825      -0.08238
                        -----------------------------------------
Magnitude (a.u.)       :      0.27369
Magnitude (Debye)      :      0.69567

Rotational constants in cm-1:     0.002226     0.001550     0.001351
Rotational constants in MHz :    66.722797    46.464201    40.506295

                             ****ORCA TERMINATED NORMALLY****
TOTAL RUN TIME: 0 days 5 hours 37 minutes 55 seconds 250 msec
