                         Program Version 5.0.3 -  RELEASE  -
|  1> %pal nprocs 1 end
|  2>
|  3> !PBE def2-TZVP OPT UNO
|  4> !SLOWCONV KDIIS
|  5>
|  6> %geom maxiter 300 end
|  7>
|  8> *xyzfile 0 6 1.xyz                           ****END OF INPUT****
 Total Charge           Charge          ....    0
 Multiplicity           Mult            ....    6
 Number of Electrons    NEL             ....  215
FINAL SINGLE POINT ENERGY     -2509.037390238175
FINAL SINGLE POINT ENERGY     -2509.039389486430
FINAL SINGLE POINT ENERGY     -2509.040878837357
FINAL SINGLE POINT ENERGY     -2509.042281608747
FINAL SINGLE POINT ENERGY     -2509.042702863243
FINAL SINGLE POINT ENERGY     -2509.043135132299
FINAL SINGLE POINT ENERGY     -2509.043519021046
FINAL SINGLE POINT ENERGY     -2509.043622779240
FINAL SINGLE POINT ENERGY     -2509.043782402370
FINAL SINGLE POINT ENERGY     -2509.043854044300
FINAL SINGLE POINT ENERGY     -2509.044288608780
FINAL SINGLE POINT ENERGY     -2509.044335762215
FINAL SINGLE POINT ENERGY     -2509.044372127271
FINAL SINGLE POINT ENERGY     -2509.044392297547
FINAL SINGLE POINT ENERGY     -2509.044410818965
FINAL SINGLE POINT ENERGY     -2509.044425880379
FINAL SINGLE POINT ENERGY     -2509.044433538013
FINAL SINGLE POINT ENERGY     -2509.044437098699
FINAL SINGLE POINT ENERGY     -2509.044439822276
                    ***********************HURRAY********************

CARTESIAN COORDINATES (ANGSTROEM)
---------------------------------
  Au     8.516217    8.250930    6.251554
  Au     6.230262    7.080884    5.724317
  Au     6.055401    5.182979    8.090920
  Au     4.058692    5.491282    6.159023
  Au     4.124676    7.298985    8.183506
  Au    10.861908    9.225831    7.119786
  Au     9.268554    8.462853    9.058983
  Au     5.267881    8.643511   10.144403
  Au     7.724779    6.086430    9.907211
  Au     7.822547    8.534562   11.267427
  Mn     6.775272    7.821443    8.192493

 Multiplicity           Mult            ....    6
 Number of Electrons    NEL             ....  215
 Basis Dimension        Dim             ....  445

ORBITAL ENERGIES
----------------
                 SPIN UP ORBITALS
  NO   OCC          E(Eh)            E(eV)
   0   1.0000    -234.199790     -6372.9003
   1   1.0000     -26.897993      -731.9316
   2   1.0000     -23.047248      -627.1475
   3   1.0000     -23.046155      -627.1177
   4   1.0000     -23.044816      -627.0813
   5   1.0000      -4.033993      -109.7705
   6   1.0000      -4.025526      -109.5401
   7   1.0000      -4.024327      -109.5075
   8   1.0000      -4.023940      -109.4970
   9   1.0000      -4.023752      -109.4919
  10   1.0000      -4.021783      -109.4383
  11   1.0000      -4.021671      -109.4352
  12   1.0000      -4.020559      -109.4050
  13   1.0000      -4.020008      -109.3900
  14   1.0000      -4.009911      -109.1152
  15   1.0000      -3.110119       -84.6307
  16   1.0000      -2.254451       -61.3467
  17   1.0000      -2.247320       -61.1527
  18   1.0000      -2.245458       -61.1020
  19   1.0000      -2.245330       -61.0985
  20   1.0000      -2.242520       -61.0221
  21   1.0000      -2.241077       -60.9828
  22   1.0000      -2.240143       -60.9574
  23   1.0000      -2.239782       -60.9476
  24   1.0000      -2.239463       -60.9389
  25   1.0000      -2.239292       -60.9342
  26   1.0000      -2.238657       -60.9169
  27   1.0000      -2.238135       -60.9027
  28   1.0000      -2.237169       -60.8765
  29   1.0000      -2.236472       -60.8575
  30   1.0000      -2.235598       -60.8337
  31   1.0000      -2.234569       -60.8057
  32   1.0000      -2.234017       -60.7907
  33   1.0000      -2.233957       -60.7890
  34   1.0000      -2.232689       -60.7545
  35   1.0000      -2.232157       -60.7401
  36   1.0000      -2.231800       -60.7304
  37   1.0000      -2.230416       -60.6927
  38   1.0000      -2.230184       -60.6864
  39   1.0000      -2.229260       -60.6612
  40   1.0000      -2.228298       -60.6351
  41   1.0000      -2.227346       -60.6092
  42   1.0000      -2.227176       -60.6045
  43   1.0000      -2.226746       -60.5929
  44   1.0000      -2.223386       -60.5014
  45   1.0000      -2.215511       -60.2871
  46   1.0000      -2.014863       -54.8272
  47   1.0000      -2.012569       -54.7648
  48   1.0000      -2.010517       -54.7089
  49   1.0000      -0.407189       -11.0802
  50   1.0000      -0.385918       -10.5014
  51   1.0000      -0.376482       -10.2446
  52   1.0000      -0.371787       -10.1168
  53   1.0000      -0.365685        -9.9508
  54   1.0000      -0.360648        -9.8137
  55   1.0000      -0.356668        -9.7054
  56   1.0000      -0.344736        -9.3807
  57   1.0000      -0.341679        -9.2976
  58   1.0000      -0.339616        -9.2414
  59   1.0000      -0.336774        -9.1641
  60   1.0000      -0.332033        -9.0351
  61   1.0000      -0.329448        -8.9647
  62   1.0000      -0.327063        -8.8998
  63   1.0000      -0.324138        -8.8202
  64   1.0000      -0.321045        -8.7361
  65   1.0000      -0.319021        -8.6810
  66   1.0000      -0.316243        -8.6054
  67   1.0000      -0.313206        -8.5228
  68   1.0000      -0.312373        -8.5001
  69   1.0000      -0.306589        -8.3427
  70   1.0000      -0.305125        -8.3029
  71   1.0000      -0.300757        -8.1840
  72   1.0000      -0.300050        -8.1648
  73   1.0000      -0.296008        -8.0548
  74   1.0000      -0.291260        -7.9256
  75   1.0000      -0.290031        -7.8921
  76   1.0000      -0.287197        -7.8150
  77   1.0000      -0.284240        -7.7346
  78   1.0000      -0.283243        -7.7074
  79   1.0000      -0.280541        -7.6339
  80   1.0000      -0.278311        -7.5732
  81   1.0000      -0.276887        -7.5345
  82   1.0000      -0.274503        -7.4696
  83   1.0000      -0.273412        -7.4399
  84   1.0000      -0.272670        -7.4197
  85   1.0000      -0.270200        -7.3525
  86   1.0000      -0.268374        -7.3028
  87   1.0000      -0.266507        -7.2520
  88   1.0000      -0.265316        -7.2196
  89   1.0000      -0.263530        -7.1710
  90   1.0000      -0.262150        -7.1335
  91   1.0000      -0.260544        -7.0898
  92   1.0000      -0.258648        -7.0382
  93   1.0000      -0.257029        -6.9941
  94   1.0000      -0.255833        -6.9616
  95   1.0000      -0.254805        -6.9336
  96   1.0000      -0.253055        -6.8860
  97   1.0000      -0.251814        -6.8522
  98   1.0000      -0.249627        -6.7927
  99   1.0000      -0.247065        -6.7230
 100   1.0000      -0.245808        -6.6888
 101   1.0000      -0.244285        -6.6473
 102   1.0000      -0.243148        -6.6164
 103   1.0000      -0.241238        -6.5644
 104   1.0000      -0.239714        -6.5229
 105   1.0000      -0.235736        -6.4147
 106   1.0000      -0.232227        -6.3192
 107   1.0000      -0.215375        -5.8606
 108   1.0000      -0.211658        -5.7595
 109   1.0000      -0.205145        -5.5823
 110   0.0000      -0.161989        -4.4080
 111   0.0000      -0.140190        -3.8148
 112   0.0000      -0.129498        -3.5238
 113   0.0000      -0.125440        -3.4134
 114   0.0000      -0.103343        -2.8121

                 SPIN DOWN ORBITALS
  NO   OCC          E(Eh)            E(eV)
   0   1.0000    -234.198985     -6372.8784
   1   1.0000     -26.829644      -730.0717
   2   1.0000     -22.994685      -625.7172
   3   1.0000     -22.994372      -625.7087
   4   1.0000     -22.993377      -625.6816
   5   1.0000      -4.032481      -109.7294
   6   1.0000      -4.024092      -109.5011
   7   1.0000      -4.023312      -109.4799
   8   1.0000      -4.022836      -109.4669
   9   1.0000      -4.022241      -109.4507
  10   1.0000      -4.020314      -109.3983
  11   1.0000      -4.020247      -109.3965
  12   1.0000      -4.019913      -109.3874
  13   1.0000      -4.018748      -109.3557
  14   1.0000      -4.009788      -109.1119
  15   1.0000      -2.941966       -80.0550
  16   1.0000      -2.252829       -61.3026
  17   1.0000      -2.245116       -61.0927
  18   1.0000      -2.243872       -61.0589
  19   1.0000      -2.243635       -61.0524
  20   1.0000      -2.241052       -60.9821
  21   1.0000      -2.240187       -60.9586
  22   1.0000      -2.238485       -60.9123
  23   1.0000      -2.238287       -60.9069
  24   1.0000      -2.237436       -60.8837
  25   1.0000      -2.237252       -60.8787
  26   1.0000      -2.236936       -60.8701
  27   1.0000      -2.236499       -60.8582
  28   1.0000      -2.235847       -60.8405
  29   1.0000      -2.235333       -60.8265
  30   1.0000      -2.234075       -60.7923
  31   1.0000      -2.233037       -60.7640
  32   1.0000      -2.232796       -60.7575
  33   1.0000      -2.232274       -60.7433
  34   1.0000      -2.232234       -60.7422
  35   1.0000      -2.231326       -60.7175
  36   1.0000      -2.230990       -60.7083
  37   1.0000      -2.230038       -60.6824
  38   1.0000      -2.229068       -60.6560
  39   1.0000      -2.228818       -60.6492
  40   1.0000      -2.227074       -60.6018
  41   1.0000      -2.226102       -60.5753
  42   1.0000      -2.226044       -60.5737
  43   1.0000      -2.225532       -60.5598
  44   1.0000      -2.223282       -60.4986
  45   1.0000      -2.215335       -60.2823
  46   1.0000      -1.848593       -50.3028
  47   1.0000      -1.847710       -50.2787
  48   1.0000      -1.846275       -50.2397
  49   1.0000      -0.401240       -10.9183
  50   1.0000      -0.383441       -10.4340
  51   1.0000      -0.373585       -10.1658
  52   1.0000      -0.364382        -9.9153
  53   1.0000      -0.361066        -9.8251
  54   1.0000      -0.354126        -9.6363
  55   1.0000      -0.349372        -9.5069
  56   1.0000      -0.337834        -9.1929
  57   1.0000      -0.335961        -9.1420
  58   1.0000      -0.333636        -9.0787
  59   1.0000      -0.328885        -8.9494
  60   1.0000      -0.328201        -8.9308
  61   1.0000      -0.323200        -8.7947
  62   1.0000      -0.320396        -8.7184
  63   1.0000      -0.316131        -8.6023
  64   1.0000      -0.314133        -8.5480
  65   1.0000      -0.313348        -8.5266
  66   1.0000      -0.310505        -8.4493
  67   1.0000      -0.307521        -8.3681
  68   1.0000      -0.305357        -8.3092
  69   1.0000      -0.302122        -8.2212
  70   1.0000      -0.300962        -8.1896
  71   1.0000      -0.296915        -8.0795
  72   1.0000      -0.294236        -8.0066
  73   1.0000      -0.291222        -7.9246
  74   1.0000      -0.288853        -7.8601
  75   1.0000      -0.286824        -7.8049
  76   1.0000      -0.282334        -7.6827
  77   1.0000      -0.281488        -7.6597
  78   1.0000      -0.278685        -7.5834
  79   1.0000      -0.276753        -7.5308
  80   1.0000      -0.276114        -7.5134
  81   1.0000      -0.274453        -7.4682
  82   1.0000      -0.272475        -7.4144
  83   1.0000      -0.271045        -7.3755
  84   1.0000      -0.269941        -7.3455
  85   1.0000      -0.268988        -7.3195
  86   1.0000      -0.266139        -7.2420
  87   1.0000      -0.265092        -7.2135
  88   1.0000      -0.263531        -7.1710
  89   1.0000      -0.261614        -7.1189
  90   1.0000      -0.260207        -7.0806
  91   1.0000      -0.257569        -7.0088
  92   1.0000      -0.256248        -6.9729
  93   1.0000      -0.253986        -6.9113
  94   1.0000      -0.252957        -6.8833
  95   1.0000      -0.251138        -6.8338
  96   1.0000      -0.248625        -6.7654
  97   1.0000      -0.245676        -6.6852
  98   1.0000      -0.243576        -6.6280
  99   1.0000      -0.241892        -6.5822
 100   1.0000      -0.239548        -6.5184
 101   1.0000      -0.236045        -6.4231
 102   1.0000      -0.222392        -6.0516
 103   1.0000      -0.219480        -5.9724
 104   1.0000      -0.211269        -5.7489
 105   0.0000      -0.168436        -4.5834
 106   0.0000      -0.147531        -4.0145
 107   0.0000      -0.138622        -3.7721
 108   0.0000      -0.133538        -3.6338
 109   0.0000      -0.125682        -3.4200

MULLIKEN ATOMIC CHARGES AND SPIN POPULATIONS
--------------------------------------------
   0 Au:   -0.103568    0.031775
   1 Au:    0.104134    0.070158
   2 Au:    0.025905    0.048032
   3 Au:    0.326083    0.062580
   4 Au:    0.091622    0.045417
   5 Au:    0.327081    0.057048
   6 Au:   -0.199701    0.022774
   7 Au:    0.099298    0.061510
   8 Au:    0.122218    0.071783
   9 Au:    0.260241    0.058099
  10 Mn:   -1.053313    4.470825
Sum of atomic charges         :   -0.0000000

LOEWDIN ATOMIC CHARGES AND SPIN POPULATIONS
-------------------------------------------
   0 Au:    0.002131    0.060895
   1 Au:    0.001470    0.080089
   2 Au:   -0.020757    0.064546
   3 Au:    0.077031    0.047133
   4 Au:   -0.011079    0.067750
   5 Au:    0.090230    0.042605
   6 Au:   -0.081798    0.071266
   7 Au:    0.073625    0.068996
   8 Au:    0.043139    0.076171
   9 Au:    0.060048    0.041839
  10 Mn:   -0.234040    4.378710

  Mayer bond orders larger than 0.100000
B(  0-Au,  1-Au) :   0.5485 B(  0-Au,  5-Au) :   0.4277 B(  0-Au,  6-Au) :   0.2550
B(  0-Au, 10-Mn) :   0.6406 B(  1-Au,  2-Au) :   0.1174 B(  1-Au,  3-Au) :   0.3334
B(  1-Au, 10-Mn) :   0.5788 B(  2-Au,  3-Au) :   0.3246 B(  2-Au,  4-Au) :   0.2381
B(  2-Au,  8-Au) :   0.5695 B(  2-Au, 10-Mn) :   0.4801 B(  3-Au,  4-Au) :   0.3822
B(  4-Au,  7-Au) :   0.5040 B(  4-Au, 10-Mn) :   0.4769 B(  5-Au,  6-Au) :   0.6121
B(  6-Au,  8-Au) :   0.1632 B(  6-Au,  9-Au) :   0.5435 B(  6-Au, 10-Mn) :   0.3951
B(  7-Au,  9-Au) :   0.2235 B(  7-Au, 10-Mn) :   0.6661 B(  8-Au,  9-Au) :   0.2089
B(  8-Au, 10-Mn) :   0.5759 B(  9-Au, 10-Mn) :   0.2016

FINAL SINGLE POINT ENERGY     -2509.044441882918

DIPOLE MOMENT
-------------
                                X             Y             Z
Electronic contribution:      7.91070     -14.24111       0.13138
Nuclear contribution   :     -7.88899      14.32848       0.06446
                        -----------------------------------------
Total Dipole Moment    :      0.02170       0.08738       0.19584
                        -----------------------------------------
Magnitude (a.u.)       :      0.21555
Magnitude (Debye)      :      0.54788

Rotational constants in cm-1:     0.002085     0.001335     0.000996
Rotational constants in MHz :    62.511506    40.013717    29.864702

                             ****ORCA TERMINATED NORMALLY****
TOTAL RUN TIME: 0 days 2 hours 25 minutes 35 seconds 786 msec
