                         Program Version 5.0.3 -  RELEASE  -
|  1> !RI-B2PLYP def2-TZVP def2-TZVP/C
|  2> !RIJCOSX VERYSLOWCONV
|  3>
|  4> %scf
|  5>   AutoTRAHIter 200
|  6>   maxiter 400
|  7> end
|  8>
|  9>
| 10> %pal nprocs 6 end
| 11>
| 12> *xyzfile 0 5 pbe.xyz
| 13>
| 14> $new_job
| 15>
| 16> !RI-B2PLYP def2-TZVP def2-TZVP/C
| 17> !RIJCOSX VERYSLOWCONV
| 18>
| 19> %scf
| 20>   AutoTRAHIter 200
| 21>   maxiter 400
| 22> end
| 23>
| 24>
| 25> %pal nprocs 6 end
| 26>
| 27> *xyzfile 0 3 pbe.xyz
| 28>
| 29>
| 30>
| 31>
| 32>
| 33>                          ****END OF INPUT****
 Total Charge           Charge          ....    0
 Multiplicity           Mult            ....    5
 Number of Electrons    NEL             ....  328
MP2 TOTAL ENERGY:    -3213.729599957 Eh
FINAL SINGLE POINT ENERGY     -3213.729599956795

CARTESIAN COORDINATES (ANGSTROEM)
---------------------------------
  Au     4.706264    6.277886    8.543179
  Au     7.253466    6.820951    9.668588
  Au     6.948864    4.783985    7.656462
  Au     9.266552    6.292585    7.439617
  Au     7.736130    5.863181    5.120599
  Au     4.964496    5.826192    5.748648
  Au     4.208957    8.472524    6.458023
  Au     5.304684    8.953190    8.957899
  Au     9.159297   10.865312    6.838922
  Au    10.780331    8.558310    7.237158
  Au     8.774484    8.463478    5.382875
  Au     6.180687    8.170277    4.444116
  Au     6.502343   10.146302    6.511577
  Au     7.962078    9.509738    8.913016
  Au     9.865939    7.732555    9.805527
  Au    10.562413   10.461343    9.302699
  Cr     6.736383    7.488870    7.077138

 Multiplicity           Mult            ....    3
 Number of Electrons    NEL             ....  328
 Basis Dimension        Dim             ....  685

ORBITAL ENERGIES
----------------
                 SPIN UP ORBITALS
  NO   OCC          E(Eh)            E(eV)
   0   1.0000    -217.757508     -5925.4830
   1   1.0000     -25.442867      -692.3356
   2   1.0000     -21.582376      -587.2863
   3   1.0000     -21.582311      -587.2845
   4   1.0000     -21.576682      -587.1314
   5   1.0000      -4.404848      -119.8620
   6   1.0000      -4.404840      -119.8618
   7   1.0000      -4.403361      -119.8215
   8   1.0000      -4.401640      -119.7747
   9   1.0000      -4.400872      -119.7538
  10   1.0000      -4.399693      -119.7217
  11   1.0000      -4.399642      -119.7203
  12   1.0000      -4.398627      -119.6927
  13   1.0000      -4.398587      -119.6916
  14   1.0000      -4.397662      -119.6665
  15   1.0000      -4.397630      -119.6656
  16   1.0000      -4.393191      -119.5448
  17   1.0000      -4.393156      -119.5439
  18   1.0000      -4.392869      -119.5361
  19   1.0000      -4.389547      -119.4456
  20   1.0000      -4.380227      -119.1920
  21   1.0000      -3.232306       -87.9555
  22   1.0000      -2.525479       -68.7218
  23   1.0000      -2.525248       -68.7155
  24   1.0000      -2.524781       -68.7028
  25   1.0000      -2.523967       -68.6806
  26   1.0000      -2.523377       -68.6646
  27   1.0000      -2.522586       -68.6431
  28   1.0000      -2.521826       -68.6224
  29   1.0000      -2.521727       -68.6197
  30   1.0000      -2.520863       -68.5962
  31   1.0000      -2.520741       -68.5929
  32   1.0000      -2.519857       -68.5688
  33   1.0000      -2.519555       -68.5606
  34   1.0000      -2.518917       -68.5432
  35   1.0000      -2.518305       -68.5266
  36   1.0000      -2.518262       -68.5254
  37   1.0000      -2.517961       -68.5172
  38   1.0000      -2.517835       -68.5138
  39   1.0000      -2.517372       -68.5012
  40   1.0000      -2.517195       -68.4964
  41   1.0000      -2.516684       -68.4825
  42   1.0000      -2.516629       -68.4810
  43   1.0000      -2.516475       -68.4768
  44   1.0000      -2.515564       -68.4520
  45   1.0000      -2.515140       -68.4404
  46   1.0000      -2.514989       -68.4363
  47   1.0000      -2.514698       -68.4284
  48   1.0000      -2.514312       -68.4179
  49   1.0000      -2.513842       -68.4051
  50   1.0000      -2.513707       -68.4014
  51   1.0000      -2.513618       -68.3990
  52   1.0000      -2.513091       -68.3847
  53   1.0000      -2.512461       -68.3675
  54   1.0000      -2.511909       -68.3525
  55   1.0000      -2.511740       -68.3479
  56   1.0000      -2.511533       -68.3423
  57   1.0000      -2.511326       -68.3366
  58   1.0000      -2.510587       -68.3165
  59   1.0000      -2.510479       -68.3136
  60   1.0000      -2.509371       -68.2834
  61   1.0000      -2.509281       -68.2810
  62   1.0000      -2.508769       -68.2671
  63   1.0000      -2.508657       -68.2640
  64   1.0000      -2.506838       -68.2145
  65   1.0000      -2.506343       -68.2011
  66   1.0000      -2.504498       -68.1509
  67   1.0000      -2.498793       -67.9956
  68   1.0000      -2.497056       -67.9484
  69   1.0000      -2.496376       -67.9298
  70   1.0000      -2.124450       -57.8092
  71   1.0000      -2.114570       -57.5404
  72   1.0000      -2.114490       -57.5382
  73   1.0000      -0.509074       -13.8526
  74   1.0000      -0.486302       -13.2329
  75   1.0000      -0.481840       -13.1115
  76   1.0000      -0.476092       -12.9551
  77   1.0000      -0.474295       -12.9062
  78   1.0000      -0.473466       -12.8837
  79   1.0000      -0.472549       -12.8587
  80   1.0000      -0.468477       -12.7479
  81   1.0000      -0.466560       -12.6957
  82   1.0000      -0.466357       -12.6902
  83   1.0000      -0.462459       -12.5841
  84   1.0000      -0.457527       -12.4499
  85   1.0000      -0.456600       -12.4247
  86   1.0000      -0.456054       -12.4099
  87   1.0000      -0.455931       -12.4065
  88   1.0000      -0.454837       -12.3767
  89   1.0000      -0.452381       -12.3099
  90   1.0000      -0.450993       -12.2722
  91   1.0000      -0.449417       -12.2293
  92   1.0000      -0.446014       -12.1367
  93   1.0000      -0.445066       -12.1109
  94   1.0000      -0.442232       -12.0338
  95   1.0000      -0.441381       -12.0106
  96   1.0000      -0.438085       -11.9209
  97   1.0000      -0.437074       -11.8934
  98   1.0000      -0.434023       -11.8104
  99   1.0000      -0.431520       -11.7423
 100   1.0000      -0.429455       -11.6861
 101   1.0000      -0.427279       -11.6269
 102   1.0000      -0.423943       -11.5361
 103   1.0000      -0.421574       -11.4716
 104   1.0000      -0.419059       -11.4032
 105   1.0000      -0.418005       -11.3745
 106   1.0000      -0.416704       -11.3391
 107   1.0000      -0.412287       -11.2189
 108   1.0000      -0.412074       -11.2131
 109   1.0000      -0.409003       -11.1295
 110   1.0000      -0.406511       -11.0617
 111   1.0000      -0.403870       -10.9899
 112   1.0000      -0.399683       -10.8759
 113   1.0000      -0.399086       -10.8597
 114   1.0000      -0.397305       -10.8112
 115   1.0000      -0.393707       -10.7133
 116   1.0000      -0.390195       -10.6177
 117   1.0000      -0.387150       -10.5349
 118   1.0000      -0.385649       -10.4941
 119   1.0000      -0.384208       -10.4548
 120   1.0000      -0.383302       -10.4302
 121   1.0000      -0.379839       -10.3359
 122   1.0000      -0.375931       -10.2296
 123   1.0000      -0.375839       -10.2271
 124   1.0000      -0.371326       -10.1043
 125   1.0000      -0.370959       -10.0943
 126   1.0000      -0.369245       -10.0477
 127   1.0000      -0.367803       -10.0084
 128   1.0000      -0.366814        -9.9815
 129   1.0000      -0.366321        -9.9681
 130   1.0000      -0.366055        -9.9609
 131   1.0000      -0.365045        -9.9334
 132   1.0000      -0.362775        -9.8716
 133   1.0000      -0.362045        -9.8518
 134   1.0000      -0.359796        -9.7905
 135   1.0000      -0.357982        -9.7412
 136   1.0000      -0.355263        -9.6672
 137   1.0000      -0.354342        -9.6421
 138   1.0000      -0.354300        -9.6410
 139   1.0000      -0.354023        -9.6334
 140   1.0000      -0.349645        -9.5143
 141   1.0000      -0.349368        -9.5068
 142   1.0000      -0.348627        -9.4866
 143   1.0000      -0.347256        -9.4493
 144   1.0000      -0.345951        -9.4138
 145   1.0000      -0.345569        -9.4034
 146   1.0000      -0.342086        -9.3086
 147   1.0000      -0.339586        -9.2406
 148   1.0000      -0.337838        -9.1930
 149   1.0000      -0.336807        -9.1650
 150   1.0000      -0.334552        -9.1036
 151   1.0000      -0.334065        -9.0904
 152   1.0000      -0.330526        -8.9941
 153   1.0000      -0.329866        -8.9761
 154   1.0000      -0.327309        -8.9065
 155   1.0000      -0.326612        -8.8876
 156   1.0000      -0.325874        -8.8675
 157   1.0000      -0.323106        -8.7922
 158   1.0000      -0.316124        -8.6022
 159   1.0000      -0.307462        -8.3665
 160   1.0000      -0.305925        -8.3247
 161   1.0000      -0.249791        -6.7972
 162   1.0000      -0.238037        -6.4773
 163   1.0000      -0.232900        -6.3375
 164   1.0000      -0.221789        -6.0352
 165   0.0000      -0.127666        -3.4740
 166   0.0000      -0.100603        -2.7375
 167   0.0000      -0.081523        -2.2184
 168   0.0000      -0.076398        -2.0789
 169   0.0000      -0.072943        -1.9849

                 SPIN DOWN ORBITALS
  NO   OCC          E(Eh)            E(eV)
   0   1.0000    -217.756236     -5925.4484
   1   1.0000     -25.372621      -690.4241
   2   1.0000     -21.522356      -585.6531
   3   1.0000     -21.522251      -585.6502
   4   1.0000     -21.502144      -585.1031
   5   1.0000      -4.404561      -119.8542
   6   1.0000      -4.404299      -119.8471
   7   1.0000      -4.404278      -119.8465
   8   1.0000      -4.401940      -119.7829
   9   1.0000      -4.401400      -119.7682
  10   1.0000      -4.398922      -119.7008
  11   1.0000      -4.398877      -119.6995
  12   1.0000      -4.398746      -119.6960
  13   1.0000      -4.398700      -119.6947
  14   1.0000      -4.397771      -119.6694
  15   1.0000      -4.397736      -119.6685
  16   1.0000      -4.393688      -119.5583
  17   1.0000      -4.393550      -119.5546
  18   1.0000      -4.393519      -119.5537
  19   1.0000      -4.390262      -119.4651
  20   1.0000      -4.381435      -119.2249
  21   1.0000      -3.016897       -82.0940
  22   1.0000      -2.526491       -68.7493
  23   1.0000      -2.524225       -68.6876
  24   1.0000      -2.523778       -68.6755
  25   1.0000      -2.523763       -68.6751
  26   1.0000      -2.522035       -68.6281
  27   1.0000      -2.521773       -68.6209
  28   1.0000      -2.521044       -68.6011
  29   1.0000      -2.520643       -68.5902
  30   1.0000      -2.520496       -68.5862
  31   1.0000      -2.519915       -68.5704
  32   1.0000      -2.519542       -68.5602
  33   1.0000      -2.519518       -68.5596
  34   1.0000      -2.518821       -68.5406
  35   1.0000      -2.518418       -68.5296
  36   1.0000      -2.517733       -68.5110
  37   1.0000      -2.517412       -68.5023
  38   1.0000      -2.517320       -68.4998
  39   1.0000      -2.517164       -68.4955
  40   1.0000      -2.516934       -68.4893
  41   1.0000      -2.516103       -68.4666
  42   1.0000      -2.515888       -68.4608
  43   1.0000      -2.515305       -68.4449
  44   1.0000      -2.514680       -68.4279
  45   1.0000      -2.514562       -68.4247
  46   1.0000      -2.514516       -68.4235
  47   1.0000      -2.514179       -68.4143
  48   1.0000      -2.514103       -68.4122
  49   1.0000      -2.513753       -68.4027
  50   1.0000      -2.513725       -68.4019
  51   1.0000      -2.513501       -68.3959
  52   1.0000      -2.513142       -68.3861
  53   1.0000      -2.512515       -68.3690
  54   1.0000      -2.512003       -68.3551
  55   1.0000      -2.511866       -68.3513
  56   1.0000      -2.511839       -68.3506
  57   1.0000      -2.510977       -68.3271
  58   1.0000      -2.510843       -68.3235
  59   1.0000      -2.510830       -68.3231
  60   1.0000      -2.509757       -68.2940
  61   1.0000      -2.509651       -68.2911
  62   1.0000      -2.509166       -68.2779
  63   1.0000      -2.509020       -68.2739
  64   1.0000      -2.508068       -68.2480
  65   1.0000      -2.507036       -68.2199
  66   1.0000      -2.504807       -68.1593
  67   1.0000      -2.499407       -68.0123
  68   1.0000      -2.497350       -67.9564
  69   1.0000      -2.496792       -67.9412
  70   1.0000      -1.885607       -51.3100
  71   1.0000      -1.885348       -51.3029
  72   1.0000      -1.839402       -50.0527
  73   1.0000      -0.505563       -13.7571
  74   1.0000      -0.483031       -13.1439
  75   1.0000      -0.472534       -12.8583
  76   1.0000      -0.472150       -12.8478
  77   1.0000      -0.470843       -12.8123
  78   1.0000      -0.468070       -12.7368
  79   1.0000      -0.464715       -12.6455
  80   1.0000      -0.462945       -12.5974
  81   1.0000      -0.462435       -12.5835
  82   1.0000      -0.461784       -12.5658
  83   1.0000      -0.460819       -12.5395
  84   1.0000      -0.457227       -12.4418
  85   1.0000      -0.457019       -12.4361
  86   1.0000      -0.456813       -12.4305
  87   1.0000      -0.454828       -12.3765
  88   1.0000      -0.453525       -12.3410
  89   1.0000      -0.452407       -12.3106
  90   1.0000      -0.451592       -12.2884
  91   1.0000      -0.449861       -12.2413
  92   1.0000      -0.446281       -12.1439
  93   1.0000      -0.446195       -12.1416
  94   1.0000      -0.443019       -12.0551
  95   1.0000      -0.441979       -12.0269
  96   1.0000      -0.439336       -11.9550
  97   1.0000      -0.438997       -11.9457
  98   1.0000      -0.433652       -11.8003
  99   1.0000      -0.433223       -11.7886
 100   1.0000      -0.429033       -11.6746
 101   1.0000      -0.427994       -11.6463
 102   1.0000      -0.424949       -11.5634
 103   1.0000      -0.423001       -11.5105
 104   1.0000      -0.420981       -11.4555
 105   1.0000      -0.418187       -11.3794
 106   1.0000      -0.412579       -11.2269
 107   1.0000      -0.412053       -11.2125
 108   1.0000      -0.409981       -11.1561
 109   1.0000      -0.404467       -11.0061
 110   1.0000      -0.403666       -10.9843
 111   1.0000      -0.399110       -10.8603
 112   1.0000      -0.398460       -10.8426
 113   1.0000      -0.395069       -10.7504
 114   1.0000      -0.391914       -10.6645
 115   1.0000      -0.387996       -10.5579
 116   1.0000      -0.386177       -10.5084
 117   1.0000      -0.384632       -10.4664
 118   1.0000      -0.381975       -10.3941
 119   1.0000      -0.381272       -10.3749
 120   1.0000      -0.379074       -10.3151
 121   1.0000      -0.378240       -10.2924
 122   1.0000      -0.375889       -10.2285
 123   1.0000      -0.373618       -10.1667
 124   1.0000      -0.370188       -10.0733
 125   1.0000      -0.368963       -10.0400
 126   1.0000      -0.368416       -10.0251
 127   1.0000      -0.367858       -10.0099
 128   1.0000      -0.367325        -9.9954
 129   1.0000      -0.366746        -9.9797
 130   1.0000      -0.366512        -9.9733
 131   1.0000      -0.365649        -9.9498
 132   1.0000      -0.363128        -9.8812
 133   1.0000      -0.362818        -9.8728
 134   1.0000      -0.360979        -9.8227
 135   1.0000      -0.358629        -9.7588
 136   1.0000      -0.356501        -9.7009
 137   1.0000      -0.355256        -9.6670
 138   1.0000      -0.354963        -9.6590
 139   1.0000      -0.354275        -9.6403
 140   1.0000      -0.350988        -9.5509
 141   1.0000      -0.350603        -9.5404
 142   1.0000      -0.348955        -9.4955
 143   1.0000      -0.347751        -9.4628
 144   1.0000      -0.347061        -9.4440
 145   1.0000      -0.345545        -9.4028
 146   1.0000      -0.341011        -9.2794
 147   1.0000      -0.339093        -9.2272
 148   1.0000      -0.335861        -9.1392
 149   1.0000      -0.334639        -9.1060
 150   1.0000      -0.334452        -9.1009
 151   1.0000      -0.329927        -8.9778
 152   1.0000      -0.327914        -8.9230
 153   1.0000      -0.327583        -8.9140
 154   1.0000      -0.319588        -8.6964
 155   1.0000      -0.316966        -8.6251
 156   1.0000      -0.315953        -8.5975
 157   1.0000      -0.271017        -7.3747
 158   1.0000      -0.250134        -6.8065
 159   1.0000      -0.234188        -6.3726
 160   1.0000      -0.223994        -6.0952
 161   1.0000      -0.220806        -6.0084
 162   1.0000      -0.194245        -5.2857
 163   0.0000      -0.087947        -2.3932
 164   0.0000      -0.079048        -2.1510
 165   0.0000      -0.077257        -2.1023
 166   0.0000      -0.058683        -1.5969
 167   0.0000      -0.052930        -1.4403

MULLIKEN ATOMIC CHARGES AND SPIN POPULATIONS
--------------------------------------------
   0 Au:    0.588114   -0.022134
   1 Au:    0.360146   -0.054436
   2 Au:    0.636651   -0.054361
   3 Au:    0.048931   -0.015196
   4 Au:    0.616985   -0.092371
   5 Au:    0.505444   -0.226726
   6 Au:    0.588445   -0.022171
   7 Au:    0.683872   -0.081799
   8 Au:    0.333297    0.020657
   9 Au:    0.218143    0.087276
  10 Au:    0.048408   -0.015722
  11 Au:    0.636732   -0.054407
  12 Au:    0.360986   -0.054727
  13 Au:   -0.659213    0.079309
  14 Au:    0.332608    0.020177
  15 Au:    0.388302   -0.393878
  16 Cr:   -5.687852    2.880510
Sum of atomic charges         :   -0.0000000

LOEWDIN ATOMIC CHARGES AND SPIN POPULATIONS
-------------------------------------------
   0 Au:    0.121606   -0.092648
   1 Au:    0.087891   -0.101960
   2 Au:    0.134833   -0.121121
   3 Au:    0.032961   -0.057408
   4 Au:    0.127593   -0.128120
   5 Au:    0.102557   -0.165200
   6 Au:    0.121531   -0.092743
   7 Au:    0.134759   -0.129522
   8 Au:    0.080069   -0.040078
   9 Au:    0.009664   -0.001030
  10 Au:    0.032891   -0.057441
  11 Au:    0.134629   -0.121136
  12 Au:    0.087802   -0.101894
  13 Au:   -0.078270   -0.070039
  14 Au:    0.079665   -0.040655
  15 Au:    0.070806   -0.212587
  16 Cr:   -1.280987    3.533581

  Mayer bond orders larger than 0.100000
B(  0-Au,  1-Au) :   0.2057 B(  0-Au,  2-Au) :   0.1399 B(  0-Au,  5-Au) :   0.1423
B(  0-Au,  7-Au) :   0.1493 B(  0-Au, 16-Cr) :   0.4191 B(  1-Au,  2-Au) :   0.1459
B(  1-Au,  3-Au) :   0.1113 B(  1-Au, 13-Au) :   0.2347 B(  1-Au, 14-Au) :   0.2133
B(  1-Au, 16-Cr) :   0.5287 B(  2-Au,  3-Au) :   0.1887 B(  2-Au,  4-Au) :   0.1175
B(  2-Au, 16-Cr) :   0.4663 B(  3-Au,  4-Au) :   0.1438 B(  3-Au,  9-Au) :   0.2608
B(  3-Au, 10-Au) :   0.1635 B(  3-Au, 14-Au) :   0.1659 B(  3-Au, 16-Cr) :   0.5741
B(  4-Au,  5-Au) :   0.1289 B(  4-Au, 10-Au) :   0.1435 B(  4-Au, 11-Au) :   0.1182
B(  4-Au, 16-Cr) :   0.5044 B(  5-Au,  6-Au) :   0.1427 B(  5-Au, 16-Cr) :   0.4156
B(  6-Au,  7-Au) :   0.1496 B(  6-Au, 11-Au) :   0.1407 B(  6-Au, 12-Au) :   0.2044
B(  6-Au, 16-Cr) :   0.4191 B(  7-Au, 13-Au) :   0.2090 B(  7-Au, 16-Cr) :   0.4198
B(  8-Au,  9-Au) :   0.1193 B(  8-Au, 10-Au) :   0.1665 B(  8-Au, 12-Au) :   0.2135
B(  8-Au, 13-Au) :   0.2798 B(  8-Au, 15-Au) :   0.1417 B(  8-Au, 16-Cr) :   0.3700
B(  9-Au, 10-Au) :   0.2611 B(  9-Au, 13-Au) :   0.1568 B(  9-Au, 14-Au) :   0.1190
B(  9-Au, 15-Au) :   0.1687 B(  9-Au, 16-Cr) :   0.2914 B( 10-Au, 11-Au) :   0.1883
B( 10-Au, 12-Au) :   0.1121 B( 10-Au, 16-Cr) :   0.5739 B( 11-Au, 12-Au) :   0.1463
B( 11-Au, 16-Cr) :   0.4660 B( 12-Au, 13-Au) :   0.2349 B( 12-Au, 16-Cr) :   0.5285
B( 13-Au, 14-Au) :   0.2796 B( 13-Au, 15-Au) :   0.3860 B( 13-Au, 16-Cr) :   0.4170
B( 14-Au, 15-Au) :   0.1429 B( 14-Au, 16-Cr) :   0.3702

MP2 TOTAL ENERGY:    -3213.717523668 Eh
FINAL SINGLE POINT ENERGY     -3213.717523667979

DIPOLE MOMENT
-------------
                                X             Y             Z
Electronic contribution:     27.02640      16.12509      10.49677
Nuclear contribution   :    -27.34003     -16.26939     -10.57593
                        -----------------------------------------
Total Dipole Moment    :     -0.31363      -0.14431      -0.07916
                        -----------------------------------------
Magnitude (a.u.)       :      0.35420
Magnitude (Debye)      :      0.90030

Rotational constants in cm-1:     0.001106     0.000719     0.000694
Rotational constants in MHz :    33.147803    21.553682    20.807187

                             ****ORCA TERMINATED NORMALLY****
TOTAL RUN TIME: 0 days 1 hours 59 minutes 9 seconds 281 msec
