                         Program Version 5.0.3 -  RELEASE  -
|  1> !R2SCAN def2-TZVP VERYSLOWCONV
|  2> !KDIIS
|  3> %scf
|  4>   AutoTRAHIter 200
|  5>   maxiter 400
|  6> end
|  7>
|  8> %pal nprocs 6 end
|  9>
| 10> *xyzfile 0 5 pbe.xyz
| 11>
| 12> $new_job
| 13>
| 14> !R2SCAN def2-TZVP VERYSLOWCONV
| 15> !KDIIS
| 16> %scf
| 17>   AutoTRAHIter 200
| 18>   maxiter 400
| 19> end
| 20>
| 21>
| 22> %pal nprocs 6 end
| 23>
| 24> *xyzfile 0 3 pbe.xyz
| 25>
| 26>
| 27>
| 28>
| 29>
| 30>                          ****END OF INPUT****
 Total Charge           Charge          ....    0
 Multiplicity           Mult            ....    5
 Number of Electrons    NEL             ....  328
FINAL SINGLE POINT ENERGY     -3218.033311902554

CARTESIAN COORDINATES (ANGSTROEM)
---------------------------------
  Au     4.706264    6.277886    8.543179
  Au     7.253466    6.820951    9.668588
  Au     6.948864    4.783985    7.656462
  Au     9.266552    6.292585    7.439617
  Au     7.736130    5.863181    5.120599
  Au     4.964496    5.826192    5.748648
  Au     4.208957    8.472524    6.458023
  Au     5.304684    8.953190    8.957899
  Au     9.159297   10.865312    6.838922
  Au    10.780331    8.558310    7.237158
  Au     8.774484    8.463478    5.382875
  Au     6.180687    8.170277    4.444116
  Au     6.502343   10.146302    6.511577
  Au     7.962078    9.509738    8.913016
  Au     9.865939    7.732555    9.805527
  Au    10.562413   10.461343    9.302699
  Cr     6.736383    7.488870    7.077138

 Multiplicity           Mult            ....    3
 Number of Electrons    NEL             ....  328
 Basis Dimension        Dim             ....  685

ORBITAL ENERGIES
----------------
                 SPIN UP ORBITALS
  NO   OCC          E(Eh)            E(eV)
   0   1.0000    -215.293572     -5858.4359
   1   1.0000     -24.593884      -669.2336
   2   1.0000     -20.862089      -567.6863
   3   1.0000     -20.861412      -567.6679
   4   1.0000     -20.856850      -567.5438
   5   1.0000      -4.125483      -112.2601
   6   1.0000      -4.125468      -112.2597
   7   1.0000      -4.124527      -112.2341
   8   1.0000      -4.123240      -112.1991
   9   1.0000      -4.122402      -112.1763
  10   1.0000      -4.122234      -112.1717
  11   1.0000      -4.122203      -112.1708
  12   1.0000      -4.119698      -112.1027
  13   1.0000      -4.119635      -112.1010
  14   1.0000      -4.118773      -112.0775
  15   1.0000      -4.118739      -112.0766
  16   1.0000      -4.113195      -111.9257
  17   1.0000      -4.112125      -111.8966
  18   1.0000      -4.112116      -111.8964
  19   1.0000      -4.109554      -111.8266
  20   1.0000      -4.099562      -111.5547
  21   1.0000      -2.915574       -79.3368
  22   1.0000      -2.314651       -62.9849
  23   1.0000      -2.314282       -62.9748
  24   1.0000      -2.314209       -62.9728
  25   1.0000      -2.313060       -62.9416
  26   1.0000      -2.312675       -62.9311
  27   1.0000      -2.312226       -62.9189
  28   1.0000      -2.311563       -62.9008
  29   1.0000      -2.310778       -62.8795
  30   1.0000      -2.310496       -62.8718
  31   1.0000      -2.310376       -62.8685
  32   1.0000      -2.308874       -62.8277
  33   1.0000      -2.308641       -62.8213
  34   1.0000      -2.308398       -62.8147
  35   1.0000      -2.308184       -62.8089
  36   1.0000      -2.308089       -62.8063
  37   1.0000      -2.307181       -62.7816
  38   1.0000      -2.307098       -62.7793
  39   1.0000      -2.306862       -62.7729
  40   1.0000      -2.306603       -62.7658
  41   1.0000      -2.306529       -62.7639
  42   1.0000      -2.306298       -62.7576
  43   1.0000      -2.305872       -62.7460
  44   1.0000      -2.305537       -62.7369
  45   1.0000      -2.305405       -62.7333
  46   1.0000      -2.305258       -62.7293
  47   1.0000      -2.304865       -62.7186
  48   1.0000      -2.304527       -62.7094
  49   1.0000      -2.304079       -62.6972
  50   1.0000      -2.303386       -62.6783
  51   1.0000      -2.303339       -62.6770
  52   1.0000      -2.303244       -62.6745
  53   1.0000      -2.302950       -62.6664
  54   1.0000      -2.302397       -62.6514
  55   1.0000      -2.300240       -62.5927
  56   1.0000      -2.299631       -62.5762
  57   1.0000      -2.299504       -62.5727
  58   1.0000      -2.298000       -62.5318
  59   1.0000      -2.297815       -62.5267
  60   1.0000      -2.297611       -62.5212
  61   1.0000      -2.297568       -62.5200
  62   1.0000      -2.297218       -62.5105
  63   1.0000      -2.296956       -62.5033
  64   1.0000      -2.296573       -62.4929
  65   1.0000      -2.295466       -62.4628
  66   1.0000      -2.291304       -62.3495
  67   1.0000      -2.286524       -62.2195
  68   1.0000      -2.284760       -62.1715
  69   1.0000      -2.283962       -62.1498
  70   1.0000      -1.864143       -50.7259
  71   1.0000      -1.863683       -50.7134
  72   1.0000      -1.858976       -50.5853
  73   1.0000      -0.441707       -12.0195
  74   1.0000      -0.403918       -10.9912
  75   1.0000      -0.396150       -10.7798
  76   1.0000      -0.394561       -10.7366
  77   1.0000      -0.387417       -10.5421
  78   1.0000      -0.384493       -10.4626
  79   1.0000      -0.379446       -10.3252
  80   1.0000      -0.377279       -10.2663
  81   1.0000      -0.376334       -10.2406
  82   1.0000      -0.375122       -10.2076
  83   1.0000      -0.371480       -10.1085
  84   1.0000      -0.368270       -10.0211
  85   1.0000      -0.365658        -9.9501
  86   1.0000      -0.363869        -9.9014
  87   1.0000      -0.362422        -9.8620
  88   1.0000      -0.359866        -9.7924
  89   1.0000      -0.359747        -9.7892
  90   1.0000      -0.357175        -9.7192
  91   1.0000      -0.355202        -9.6655
  92   1.0000      -0.354671        -9.6511
  93   1.0000      -0.351666        -9.5693
  94   1.0000      -0.350674        -9.5423
  95   1.0000      -0.347307        -9.4507
  96   1.0000      -0.345466        -9.4006
  97   1.0000      -0.345347        -9.3974
  98   1.0000      -0.342372        -9.3164
  99   1.0000      -0.339377        -9.2349
 100   1.0000      -0.338785        -9.2188
 101   1.0000      -0.336447        -9.1552
 102   1.0000      -0.332440        -9.0462
 103   1.0000      -0.331808        -9.0289
 104   1.0000      -0.331471        -9.0198
 105   1.0000      -0.328318        -8.9340
 106   1.0000      -0.323158        -8.7936
 107   1.0000      -0.320398        -8.7185
 108   1.0000      -0.320299        -8.7158
 109   1.0000      -0.316173        -8.6035
 110   1.0000      -0.313533        -8.5317
 111   1.0000      -0.313410        -8.5283
 112   1.0000      -0.307399        -8.3648
 113   1.0000      -0.307101        -8.3567
 114   1.0000      -0.305162        -8.3039
 115   1.0000      -0.303560        -8.2603
 116   1.0000      -0.300389        -8.1740
 117   1.0000      -0.299014        -8.1366
 118   1.0000      -0.296184        -8.0596
 119   1.0000      -0.295547        -8.0422
 120   1.0000      -0.293513        -7.9869
 121   1.0000      -0.290581        -7.9071
 122   1.0000      -0.288247        -7.8436
 123   1.0000      -0.287426        -7.8213
 124   1.0000      -0.285315        -7.7638
 125   1.0000      -0.283478        -7.7138
 126   1.0000      -0.283316        -7.7094
 127   1.0000      -0.282365        -7.6835
 128   1.0000      -0.281944        -7.6721
 129   1.0000      -0.281453        -7.6587
 130   1.0000      -0.278694        -7.5836
 131   1.0000      -0.276741        -7.5305
 132   1.0000      -0.275583        -7.4990
 133   1.0000      -0.274674        -7.4743
 134   1.0000      -0.273685        -7.4473
 135   1.0000      -0.271410        -7.3854
 136   1.0000      -0.270218        -7.3530
 137   1.0000      -0.269516        -7.3339
 138   1.0000      -0.268974        -7.3191
 139   1.0000      -0.268101        -7.2954
 140   1.0000      -0.266666        -7.2563
 141   1.0000      -0.266106        -7.2411
 142   1.0000      -0.264868        -7.2074
 143   1.0000      -0.263228        -7.1628
 144   1.0000      -0.262717        -7.1489
 145   1.0000      -0.261087        -7.1045
 146   1.0000      -0.256953        -6.9920
 147   1.0000      -0.255999        -6.9661
 148   1.0000      -0.254610        -6.9283
 149   1.0000      -0.253464        -6.8971
 150   1.0000      -0.251566        -6.8455
 151   1.0000      -0.250797        -6.8245
 152   1.0000      -0.249960        -6.8018
 153   1.0000      -0.247921        -6.7463
 154   1.0000      -0.247607        -6.7377
 155   1.0000      -0.245859        -6.6902
 156   1.0000      -0.240784        -6.5521
 157   1.0000      -0.231477        -6.2988
 158   1.0000      -0.227437        -6.1889
 159   1.0000      -0.225807        -6.1445
 160   1.0000      -0.222480        -6.0540
 161   1.0000      -0.220367        -5.9965
 162   1.0000      -0.208455        -5.6724
 163   1.0000      -0.203581        -5.5397
 164   1.0000      -0.196787        -5.3549
 165   0.0000      -0.180189        -4.9032
 166   0.0000      -0.177888        -4.8406
 167   0.0000      -0.157656        -4.2900
 168   0.0000      -0.139418        -3.7938
 169   0.0000      -0.132607        -3.6084

                 SPIN DOWN ORBITALS
  NO   OCC          E(Eh)            E(eV)
   0   1.0000    -215.292990     -5858.4201
   1   1.0000     -24.531884      -667.5465
   2   1.0000     -20.816821      -566.4545
   3   1.0000     -20.815435      -566.4168
   4   1.0000     -20.804907      -566.1303
   5   1.0000      -4.125260      -112.2540
   6   1.0000      -4.125087      -112.2493
   7   1.0000      -4.125061      -112.2486
   8   1.0000      -4.123595      -112.2087
   9   1.0000      -4.122971      -112.1917
  10   1.0000      -4.121736      -112.1581
  11   1.0000      -4.121702      -112.1572
  12   1.0000      -4.119788      -112.1051
  13   1.0000      -4.119722      -112.1033
  14   1.0000      -4.118800      -112.0782
  15   1.0000      -4.118765      -112.0773
  16   1.0000      -4.113681      -111.9389
  17   1.0000      -4.112542      -111.9080
  18   1.0000      -4.112529      -111.9076
  19   1.0000      -4.110010      -111.8391
  20   1.0000      -4.100209      -111.5724
  21   1.0000      -2.752190       -74.8909
  22   1.0000      -2.315550       -63.0093
  23   1.0000      -2.313656       -62.9578
  24   1.0000      -2.313502       -62.9536
  25   1.0000      -2.312859       -62.9361
  26   1.0000      -2.312696       -62.9317
  27   1.0000      -2.311637       -62.9029
  28   1.0000      -2.310994       -62.8853
  29   1.0000      -2.310641       -62.8757
  30   1.0000      -2.310473       -62.8712
  31   1.0000      -2.310292       -62.8662
  32   1.0000      -2.309019       -62.8316
  33   1.0000      -2.308858       -62.8272
  34   1.0000      -2.308536       -62.8185
  35   1.0000      -2.308056       -62.8054
  36   1.0000      -2.308040       -62.8050
  37   1.0000      -2.307026       -62.7774
  38   1.0000      -2.306724       -62.7691
  39   1.0000      -2.306550       -62.7644
  40   1.0000      -2.306382       -62.7598
  41   1.0000      -2.306313       -62.7580
  42   1.0000      -2.306021       -62.7500
  43   1.0000      -2.305505       -62.7360
  44   1.0000      -2.305102       -62.7250
  45   1.0000      -2.305013       -62.7226
  46   1.0000      -2.304859       -62.7184
  47   1.0000      -2.304685       -62.7137
  48   1.0000      -2.304461       -62.7076
  49   1.0000      -2.304188       -62.7001
  50   1.0000      -2.303462       -62.6804
  51   1.0000      -2.303393       -62.6785
  52   1.0000      -2.303355       -62.6775
  53   1.0000      -2.302979       -62.6673
  54   1.0000      -2.302431       -62.6523
  55   1.0000      -2.300069       -62.5881
  56   1.0000      -2.299977       -62.5856
  57   1.0000      -2.299923       -62.5841
  58   1.0000      -2.298485       -62.5450
  59   1.0000      -2.298248       -62.5385
  60   1.0000      -2.298159       -62.5361
  61   1.0000      -2.298120       -62.5350
  62   1.0000      -2.297848       -62.5276
  63   1.0000      -2.297727       -62.5243
  64   1.0000      -2.296973       -62.5038
  65   1.0000      -2.295850       -62.4732
  66   1.0000      -2.291587       -62.3573
  67   1.0000      -2.287066       -62.2342
  68   1.0000      -2.285191       -62.1832
  69   1.0000      -2.284381       -62.1612
  70   1.0000      -1.709109       -46.5072
  71   1.0000      -1.706268       -46.4299
  72   1.0000      -1.682850       -45.7927
  73   1.0000      -0.436644       -11.8817
  74   1.0000      -0.403782       -10.9875
  75   1.0000      -0.396467       -10.7884
  76   1.0000      -0.395161       -10.7529
  77   1.0000      -0.384143       -10.4531
  78   1.0000      -0.383567       -10.4374
  79   1.0000      -0.376431       -10.2432
  80   1.0000      -0.375719       -10.2238
  81   1.0000      -0.373503       -10.1635
  82   1.0000      -0.372341       -10.1319
  83   1.0000      -0.372061       -10.1243
  84   1.0000      -0.366787        -9.9808
  85   1.0000      -0.364796        -9.9266
  86   1.0000      -0.363562        -9.8930
  87   1.0000      -0.363491        -9.8911
  88   1.0000      -0.360842        -9.8190
  89   1.0000      -0.359643        -9.7864
  90   1.0000      -0.357985        -9.7413
  91   1.0000      -0.355686        -9.6787
  92   1.0000      -0.354700        -9.6519
  93   1.0000      -0.352702        -9.5975
  94   1.0000      -0.351657        -9.5691
  95   1.0000      -0.347785        -9.4637
  96   1.0000      -0.347180        -9.4472
  97   1.0000      -0.346384        -9.4256
  98   1.0000      -0.342705        -9.3255
  99   1.0000      -0.340346        -9.2613
 100   1.0000      -0.339897        -9.2491
 101   1.0000      -0.336508        -9.1568
 102   1.0000      -0.333792        -9.0829
 103   1.0000      -0.332540        -9.0489
 104   1.0000      -0.332363        -9.0441
 105   1.0000      -0.328851        -8.9485
 106   1.0000      -0.324529        -8.8309
 107   1.0000      -0.320981        -8.7343
 108   1.0000      -0.320391        -8.7183
 109   1.0000      -0.316247        -8.6055
 110   1.0000      -0.313770        -8.5381
 111   1.0000      -0.312354        -8.4996
 112   1.0000      -0.308660        -8.3991
 113   1.0000      -0.305326        -8.3083
 114   1.0000      -0.304406        -8.2833
 115   1.0000      -0.302024        -8.2185
 116   1.0000      -0.299369        -8.1462
 117   1.0000      -0.297733        -8.1017
 118   1.0000      -0.295466        -8.0400
 119   1.0000      -0.295333        -8.0364
 120   1.0000      -0.292855        -7.9690
 121   1.0000      -0.290906        -7.9159
 122   1.0000      -0.289155        -7.8683
 123   1.0000      -0.288229        -7.8431
 124   1.0000      -0.285179        -7.7601
 125   1.0000      -0.284585        -7.7439
 126   1.0000      -0.284207        -7.7337
 127   1.0000      -0.283778        -7.7220
 128   1.0000      -0.282312        -7.6821
 129   1.0000      -0.282256        -7.6806
 130   1.0000      -0.280314        -7.6277
 131   1.0000      -0.278378        -7.5750
 132   1.0000      -0.276834        -7.5330
 133   1.0000      -0.276086        -7.5127
 134   1.0000      -0.274942        -7.4816
 135   1.0000      -0.273070        -7.4306
 136   1.0000      -0.271645        -7.3918
 137   1.0000      -0.270817        -7.3693
 138   1.0000      -0.270276        -7.3546
 139   1.0000      -0.268812        -7.3148
 140   1.0000      -0.268186        -7.2977
 141   1.0000      -0.267986        -7.2923
 142   1.0000      -0.265794        -7.2326
 143   1.0000      -0.264539        -7.1985
 144   1.0000      -0.264393        -7.1945
 145   1.0000      -0.262899        -7.1538
 146   1.0000      -0.258163        -7.0250
 147   1.0000      -0.257179        -6.9982
 148   1.0000      -0.257167        -6.9979
 149   1.0000      -0.254768        -6.9326
 150   1.0000      -0.253896        -6.9089
 151   1.0000      -0.253272        -6.8919
 152   1.0000      -0.250536        -6.8174
 153   1.0000      -0.248379        -6.7587
 154   1.0000      -0.247934        -6.7466
 155   1.0000      -0.247789        -6.7427
 156   1.0000      -0.240673        -6.5490
 157   1.0000      -0.232415        -6.3243
 158   1.0000      -0.222694        -6.0598
 159   1.0000      -0.213456        -5.8084
 160   1.0000      -0.205541        -5.5930
 161   1.0000      -0.204744        -5.5714
 162   1.0000      -0.180682        -4.9166
 163   0.0000      -0.148188        -4.0324
 164   0.0000      -0.138531        -3.7696
 165   0.0000      -0.134893        -3.6706
 166   0.0000      -0.122829        -3.3423
 167   0.0000      -0.112673        -3.0660

MULLIKEN ATOMIC CHARGES AND SPIN POPULATIONS
--------------------------------------------
   0 Au:    0.551435   -0.036675
   1 Au:    0.335296   -0.043516
   2 Au:    0.595550   -0.056072
   3 Au:    0.069299   -0.037514
   4 Au:    0.571306   -0.093421
   5 Au:    0.490691   -0.184736
   6 Au:    0.551243   -0.036444
   7 Au:    0.625030   -0.084936
   8 Au:    0.325037    0.013191
   9 Au:    0.210054    0.071429
  10 Au:    0.069316   -0.037973
  11 Au:    0.595076   -0.056001
  12 Au:    0.335854   -0.043599
  13 Au:   -0.593929    0.015875
  14 Au:    0.324696    0.012620
  15 Au:    0.369853   -0.288693
  16 Cr:   -5.425805    2.886465
Sum of atomic charges         :   -0.0000000

LOEWDIN ATOMIC CHARGES AND SPIN POPULATIONS
-------------------------------------------
   0 Au:    0.126778   -0.083062
   1 Au:    0.101683   -0.078294
   2 Au:    0.142475   -0.106735
   3 Au:    0.051087   -0.048279
   4 Au:    0.144656   -0.129050
   5 Au:    0.107401   -0.144730
   6 Au:    0.126651   -0.083026
   7 Au:    0.151982   -0.127981
   8 Au:    0.067229   -0.033833
   9 Au:    0.005361   -0.000233
  10 Au:    0.051044   -0.048461
  11 Au:    0.142237   -0.106682
  12 Au:    0.101553   -0.078301
  13 Au:   -0.059425   -0.059331
  14 Au:    0.066910   -0.034383
  15 Au:    0.051585   -0.171151
  16 Cr:   -1.379205    3.333533

  Mayer bond orders larger than 0.100000
B(  0-Au,  1-Au) :   0.2305 B(  0-Au,  2-Au) :   0.1780 B(  0-Au,  5-Au) :   0.1765
B(  0-Au,  6-Au) :   0.1001 B(  0-Au,  7-Au) :   0.1925 B(  0-Au, 16-Cr) :   0.4671
B(  1-Au,  2-Au) :   0.1723 B(  1-Au,  3-Au) :   0.1130 B(  1-Au, 13-Au) :   0.2520
B(  1-Au, 14-Au) :   0.2695 B(  1-Au, 16-Cr) :   0.5807 B(  2-Au,  3-Au) :   0.2253
B(  2-Au,  4-Au) :   0.1538 B(  2-Au,  5-Au) :   0.1168 B(  2-Au, 16-Cr) :   0.5563
B(  3-Au,  4-Au) :   0.1775 B(  3-Au,  9-Au) :   0.2990 B(  3-Au, 10-Au) :   0.1529
B(  3-Au, 14-Au) :   0.2062 B(  3-Au, 16-Cr) :   0.5464 B(  4-Au,  5-Au) :   0.1641
B(  4-Au, 10-Au) :   0.1773 B(  4-Au, 11-Au) :   0.1547 B(  4-Au, 16-Cr) :   0.6482
B(  5-Au,  6-Au) :   0.1768 B(  5-Au, 11-Au) :   0.1160 B(  5-Au, 16-Cr) :   0.5087
B(  6-Au,  7-Au) :   0.1929 B(  6-Au, 11-Au) :   0.1790 B(  6-Au, 12-Au) :   0.2291
B(  6-Au, 16-Cr) :   0.4675 B(  7-Au, 13-Au) :   0.2859 B(  7-Au, 16-Cr) :   0.5714
B(  8-Au,  9-Au) :   0.1382 B(  8-Au, 10-Au) :   0.2066 B(  8-Au, 12-Au) :   0.2696
B(  8-Au, 13-Au) :   0.2793 B(  8-Au, 15-Au) :   0.1763 B(  8-Au, 16-Cr) :   0.3335
B(  9-Au, 10-Au) :   0.2989 B(  9-Au, 13-Au) :   0.1363 B(  9-Au, 14-Au) :   0.1378
B(  9-Au, 15-Au) :   0.1976 B(  9-Au, 16-Cr) :   0.2608 B( 10-Au, 11-Au) :   0.2250
B( 10-Au, 12-Au) :   0.1142 B( 10-Au, 16-Cr) :   0.5463 B( 11-Au, 12-Au) :   0.1728
B( 11-Au, 16-Cr) :   0.5555 B( 12-Au, 13-Au) :   0.2516 B( 12-Au, 16-Cr) :   0.5804
B( 13-Au, 14-Au) :   0.2786 B( 13-Au, 15-Au) :   0.4266 B( 13-Au, 16-Cr) :   0.3907
B( 14-Au, 15-Au) :   0.1777 B( 14-Au, 16-Cr) :   0.3336 B( 15-Au, 16-Cr) :   0.1162

FINAL SINGLE POINT ENERGY     -3218.030643658135

DIPOLE MOMENT
-------------
                                X             Y             Z
Electronic contribution:     26.91327      16.04232      10.43622
Nuclear contribution   :    -27.34003     -16.26939     -10.57593
                        -----------------------------------------
Total Dipole Moment    :     -0.42676      -0.22707      -0.13971
                        -----------------------------------------
Magnitude (a.u.)       :      0.50320
Magnitude (Debye)      :      1.27902

Rotational constants in cm-1:     0.001106     0.000719     0.000694
Rotational constants in MHz :    33.147803    21.553682    20.807187

                             ****ORCA TERMINATED NORMALLY****
TOTAL RUN TIME: 0 days 0 hours 42 minutes 33 seconds 519 msec
