                         Program Version 5.0.3 -  RELEASE  -
|  1> !CASSCF def2-TZVP def2-TZVP/C
|  2> !MOREAD RIJCOSX
|  3> %maxcore 6000
|  4> %moinp "pbe.qro"
|  5> %pal nprocs 2 end
|  6>
|  7> %casscf
|  8>  mult 5,3
|  9>  bweight 1,1
| 10>  nroots 5,45
| 11>  nel 6
| 12>  norb 5
| 13> end
| 14>
| 15>
| 16> *xyzfile 0 5 pbe.xyz
| 17>
| 18>
| 19>                          ****END OF INPUT****

CARTESIAN COORDINATES (ANGSTROEM)
---------------------------------
  Au     5.363638    7.787579    7.358004
  Au     9.435636    7.204740    9.722100
  Au     9.969017    9.549850    8.399644
  Au     6.752671    6.366778    9.443693
  Au     7.920673   11.415708    8.522004
  Au     5.325143   10.289193    8.469801
  Au     7.372687    9.012968    9.801413
  Au    10.814738    7.205170    7.259268
  Au     9.523106   11.157768    6.205496
  Au     6.993696    9.883674    6.218313
  Au     9.090036    5.863297    5.584176
  Au     6.816282    7.435537    4.943594
  Au     9.385445    8.619782    5.194517
  Au     6.685882    5.364454    6.880328
  Fe     8.096661    7.693351    7.422886

 Total Charge           Charge          ....    0
 Multiplicity           Mult            ....    5
 Number of Electrons    NEL             ....  292
 Basis Dimension        Dim             ....  605

ORBITAL ENERGIES
----------------

  NO   OCC          E(Eh)            E(eV)
   0   2.0000    -261.404101     -7113.1672
   1   2.0000     -31.964368      -869.7947
   2   2.0000     -27.445160      -746.8208
   3   2.0000     -27.444282      -746.7969
   4   2.0000     -27.444007      -746.7894
   5   2.0000      -4.734595      -128.8349
   6   2.0000      -4.722641      -128.5096
   7   2.0000      -4.719074      -128.4125
   8   2.0000      -4.718837      -128.4061
   9   2.0000      -4.718309      -128.3917
  10   2.0000      -4.718244      -128.3899
  11   2.0000      -4.711566      -128.2082
  12   2.0000      -4.711151      -128.1969
  13   2.0000      -4.711048      -128.1941
  14   2.0000      -4.710702      -128.1847
  15   2.0000      -4.710444      -128.1777
  16   2.0000      -4.710413      -128.1769
  17   2.0000      -4.709262      -128.1455
  18   2.0000      -4.709258      -128.1454
  19   2.0000      -4.198191      -114.2386
  20   2.0000      -2.778517       -75.6073
  21   2.0000      -2.777229       -75.5722
  22   2.0000      -2.777161       -75.5704
  23   2.0000      -2.772451       -75.4422
  24   2.0000      -2.770789       -75.3970
  25   2.0000      -2.769717       -75.3678
  26   2.0000      -2.763376       -75.1953
  27   2.0000      -2.760301       -75.1116
  28   2.0000      -2.758385       -75.0595
  29   2.0000      -2.757020       -75.0223
  30   2.0000      -2.756936       -75.0200
  31   2.0000      -2.756326       -75.0034
  32   2.0000      -2.755433       -74.9792
  33   2.0000      -2.755193       -74.9726
  34   2.0000      -2.754817       -74.9624
  35   2.0000      -2.754685       -74.9588
  36   2.0000      -2.754222       -74.9462
  37   2.0000      -2.753188       -74.9181
  38   2.0000      -2.752458       -74.8982
  39   2.0000      -2.752108       -74.8887
  40   2.0000      -2.751992       -74.8855
  41   2.0000      -2.749976       -74.8307
  42   2.0000      -2.749471       -74.8169
  43   2.0000      -2.748549       -74.7918
  44   2.0000      -2.748359       -74.7866
  45   2.0000      -2.748293       -74.7849
  46   2.0000      -2.747538       -74.7643
  47   2.0000      -2.746975       -74.7490
  48   2.0000      -2.746836       -74.7452
  49   2.0000      -2.746430       -74.7342
  50   2.0000      -2.745922       -74.7203
  51   2.0000      -2.745882       -74.7193
  52   2.0000      -2.745444       -74.7073
  53   2.0000      -2.745381       -74.7056
  54   2.0000      -2.745263       -74.7024
  55   2.0000      -2.745184       -74.7002
  56   2.0000      -2.744620       -74.6849
  57   2.0000      -2.744104       -74.6709
  58   2.0000      -2.743209       -74.6465
  59   2.0000      -2.743069       -74.6427
  60   2.0000      -2.742544       -74.6284
  61   2.0000      -2.742231       -74.6199
  62   2.0000      -2.742020       -74.6142
  63   2.0000      -2.740795       -74.5808
  64   2.0000      -2.740473       -74.5721
  65   2.0000      -0.590855       -16.0780
  66   2.0000      -0.560078       -15.2405
  67   2.0000      -0.559929       -15.2365
  68   2.0000      -0.556119       -15.1328
  69   2.0000      -0.555561       -15.1176
  70   2.0000      -0.554093       -15.0776
  71   2.0000      -0.553425       -15.0595
  72   2.0000      -0.551104       -14.9963
  73   2.0000      -0.550656       -14.9841
  74   2.0000      -0.547441       -14.8966
  75   2.0000      -0.547059       -14.8862
  76   2.0000      -0.544018       -14.8035
  77   2.0000      -0.543025       -14.7765
  78   2.0000      -0.540810       -14.7162
  79   2.0000      -0.538983       -14.6665
  80   2.0000      -0.538901       -14.6642
  81   2.0000      -0.535308       -14.5665
  82   2.0000      -0.530714       -14.4415
  83   2.0000      -0.528541       -14.3823
  84   2.0000      -0.527794       -14.3620
  85   2.0000      -0.524172       -14.2634
  86   2.0000      -0.518771       -14.1165
  87   2.0000      -0.514977       -14.0132
  88   2.0000      -0.513901       -13.9839
  89   2.0000      -0.512181       -13.9371
  90   2.0000      -0.511139       -13.9088
  91   2.0000      -0.506072       -13.7709
  92   2.0000      -0.503807       -13.7093
  93   2.0000      -0.501165       -13.6374
  94   2.0000      -0.495326       -13.4785
  95   2.0000      -0.494199       -13.4478
  96   2.0000      -0.490173       -13.3383
  97   2.0000      -0.488090       -13.2816
  98   2.0000      -0.485904       -13.2221
  99   2.0000      -0.478074       -13.0091
 100   2.0000      -0.476928       -12.9779
 101   2.0000      -0.474594       -12.9143
 102   2.0000      -0.474272       -12.9056
 103   2.0000      -0.468617       -12.7517
 104   2.0000      -0.464956       -12.6521
 105   2.0000      -0.464854       -12.6493
 106   2.0000      -0.461294       -12.5525
 107   2.0000      -0.459726       -12.5098
 108   2.0000      -0.459535       -12.5046
 109   2.0000      -0.457130       -12.4391
 110   2.0000      -0.455662       -12.3992
 111   2.0000      -0.455121       -12.3845
 112   2.0000      -0.452976       -12.3261
 113   2.0000      -0.451692       -12.2912
 114   2.0000      -0.448284       -12.1984
 115   2.0000      -0.445929       -12.1343
 116   2.0000      -0.445240       -12.1156
 117   2.0000      -0.444156       -12.0861
 118   2.0000      -0.442551       -12.0424
 119   2.0000      -0.442135       -12.0311
 120   2.0000      -0.440469       -11.9858
 121   2.0000      -0.435637       -11.8543
 122   2.0000      -0.435231       -11.8432
 123   2.0000      -0.435066       -11.8388
 124   2.0000      -0.433770       -11.8035
 125   2.0000      -0.427170       -11.6239
 126   2.0000      -0.425726       -11.5846
 127   2.0000      -0.424490       -11.5510
 128   2.0000      -0.422649       -11.5009
 129   2.0000      -0.421871       -11.4797
 130   2.0000      -0.417911       -11.3719
 131   2.0000      -0.408703       -11.1214
 132   2.0000      -0.408387       -11.1128
 133   2.0000      -0.407291       -11.0829
 134   2.0000      -0.405282       -11.0283
 135   2.0000      -0.385886       -10.5005
 136   2.0000      -0.372281       -10.1303
 137   2.0000      -0.362341        -9.8598
 138   2.0000      -0.352510        -9.5923
 139   2.0000      -0.261515        -7.1162
 140   2.0000      -0.244638        -6.6569
 141   2.0000      -0.228742        -6.2244
 142   2.0000      -0.222741        -6.0611
 143   1.2000      -0.277746        -7.5578
 144   1.2000      -0.267846        -7.2885
 145   1.2000      -0.271261        -7.3814
 146   1.2000      -0.281602        -7.6628
 147   1.2000      -0.276786        -7.5317
 148   0.0000      -0.047197        -1.2843
 149   0.0000      -0.026718        -0.7270
 150   0.0000      -0.010955        -0.2981
 151   0.0000      -0.005362        -0.1459
 152   0.0000       0.017267         0.4699

MULLIKEN ATOMIC CHARGES AND SPIN DENSITIES
------------------------------------------
   0 Au:    0.035674    0.007940
   1 Au:    0.451061    0.006895
   2 Au:   -0.198384    0.007573
   3 Au:    0.232950    0.007874
   4 Au:    0.179068    0.003523
   5 Au:    0.326928    0.003717
   6 Au:   -0.196983    0.007553
   7 Au:    0.233313    0.007865
   8 Au:    0.327998    0.003714
   9 Au:   -0.268108    0.006011
  10 Au:    0.291752    0.006364
  11 Au:    0.235264    0.006287
  12 Au:    0.032870    0.007948
  13 Au:    0.292091    0.006380
  14 Fe:   -1.975493    2.910357
Sum of atomic charges       :    0.0000000

LOEWDIN ATOMIC CHARGES AND SPIN DENSITIES
-----------------------------------------
   0 Au:   -0.049023    0.009915
   1 Au:    0.095723    0.009723
   2 Au:   -0.097342    0.009820
   3 Au:    0.049111    0.009653
   4 Au:    0.030623    0.003979
   5 Au:    0.122818    0.003966
   6 Au:   -0.097305    0.009790
   7 Au:    0.049516    0.009639
   8 Au:    0.123207    0.003964
   9 Au:   -0.048310    0.008782
  10 Au:    0.044136    0.008556
  11 Au:    0.012487    0.007624
  12 Au:   -0.049648    0.009921
  13 Au:    0.044441    0.008573
  14 Fe:   -0.230432    2.886096

  Mayer bond orders larger than 0.100000
B(  0-Au,  3-Au) :   0.1259 B(  0-Au,  5-Au) :   0.3067 B(  0-Au,  6-Au) :   0.1219
B(  0-Au,  9-Au) :   0.2499 B(  0-Au, 11-Au) :   0.1261 B(  0-Au, 13-Au) :   0.2338
B(  0-Au, 14-Fe) :   0.4114 B(  1-Au,  2-Au) :   0.2706 B(  1-Au,  3-Au) :   0.1038
B(  1-Au,  6-Au) :   0.2705 B(  1-Au,  7-Au) :   0.1046 B(  1-Au, 14-Fe) :   0.3312
B(  2-Au,  4-Au) :   0.3001 B(  2-Au,  6-Au) :   0.1198 B(  2-Au,  7-Au) :   0.2534
B(  2-Au,  8-Au) :   0.2453 B(  2-Au,  9-Au) :   0.1263 B(  2-Au, 12-Au) :   0.1222
B(  2-Au, 14-Fe) :   0.4331 B(  3-Au,  6-Au) :   0.2531 B(  3-Au, 13-Au) :   0.1706
B(  3-Au, 14-Fe) :   0.4290 B(  4-Au,  5-Au) :   0.1805 B(  4-Au,  6-Au) :   0.2979
B(  4-Au,  8-Au) :   0.1805 B(  4-Au,  9-Au) :   0.1724 B(  5-Au,  6-Au) :   0.2450
B(  5-Au,  9-Au) :   0.2406 B(  6-Au,  9-Au) :   0.1257 B(  6-Au, 14-Fe) :   0.4323
B(  7-Au, 10-Au) :   0.1701 B(  7-Au, 12-Au) :   0.1255 B(  7-Au, 14-Fe) :   0.4285
B(  8-Au,  9-Au) :   0.2397 B(  8-Au, 12-Au) :   0.3080 B(  9-Au, 11-Au) :   0.2737
B(  9-Au, 12-Au) :   0.2489 B(  9-Au, 14-Fe) :   0.3275 B( 10-Au, 11-Au) :   0.1447
B( 10-Au, 12-Au) :   0.2354 B( 10-Au, 13-Au) :   0.1516 B( 10-Au, 14-Fe) :   0.3513
B( 11-Au, 12-Au) :   0.1261 B( 11-Au, 13-Au) :   0.1442 B( 11-Au, 14-Fe) :   0.4453
B( 12-Au, 14-Fe) :   0.4114 B( 13-Au, 14-Fe) :   0.3522

FINAL SINGLE POINT ENERGY     -3149.741531015467

DIPOLE MOMENT
-------------
                                X             Y             Z
Electronic contribution:     -5.26467      25.97990       0.17053
Nuclear contribution   :      5.19396     -25.76953      -0.22345
                        -----------------------------------------
Total Dipole Moment    :     -0.07070       0.21037      -0.05292
                        -----------------------------------------
Magnitude (a.u.)       :      0.22815
Magnitude (Debye)      :      0.57992

Rotational constants in cm-1:     0.001155     0.001045     0.000935
Rotational constants in MHz :    34.613255    31.321433    28.035191

                             ****ORCA TERMINATED NORMALLY****
TOTAL RUN TIME: 0 days 0 hours 33 minutes 48 seconds 127 msec
