                         Program Version 5.0.3 -  RELEASE  -
|  1> !RI-B2PLYP def2-TZVP def2-TZVP/C
|  2> !RIJCOSX
|  3> %pal nprocs 16 end
|  4>
|  5> *xyzfile 0 5 pbe.xyz
|  6>
|  7> $new_job
|  8>
|  9> !RI-B2PLYP def2-TZVP def2-TZVP/C
| 10> !RIJCOSX
| 11> %pal nprocs 16 end
| 12>
| 13> *xyzfile 0 3 pbe.xyz
| 14>
| 15>
| 16>
| 17>
| 18>
| 19>                          ****END OF INPUT****
 Total Charge           Charge          ....    0
 Multiplicity           Mult            ....    5
 Number of Electrons    NEL             ....  292
MP2 TOTAL ENERGY:    -3161.745984250 Eh
FINAL SINGLE POINT ENERGY     -3161.745984250162

CARTESIAN COORDINATES (ANGSTROEM)
---------------------------------
  Au     7.906042   10.145211    8.678672
  Au     4.890535    7.775164    6.130346
  Au    10.042471    7.184934    4.766870
  Au    11.257324    7.344692    7.381809
  Au     9.370920    9.210146    6.547045
  Au     7.335871    7.413834    4.870400
  Au     6.744672    9.937294    6.128250
  Au     9.052897    5.720642    6.915451
  Au     6.337011    5.367212    6.665146
  Au     6.846473    8.084630   10.347899
  Au     5.173981    9.443895    8.449295
  Au     7.522423    5.566566    9.204852
  Au     4.928526    6.641748    8.766414
  Au     9.408508    7.745616    9.335835
  Fe     7.245842    7.737485    7.615433

 Multiplicity           Mult            ....    3
 Number of Electrons    NEL             ....  292
 Basis Dimension        Dim             ....  605

ORBITAL ENERGIES
----------------
                 SPIN UP ORBITALS
  NO   OCC          E(Eh)            E(eV)
   0   1.0000    -258.338079     -7029.7365
   1   1.0000     -30.896317      -840.7315
   2   1.0000     -26.606454      -723.9984
   3   1.0000     -26.601827      -723.8725
   4   1.0000     -26.575815      -723.1647
   5   1.0000      -4.404873      -119.8627
   6   1.0000      -4.404835      -119.8617
   7   1.0000      -4.404348      -119.8484
   8   1.0000      -4.404301      -119.8471
   9   1.0000      -4.403503      -119.8254
  10   1.0000      -4.403422      -119.8232
  11   1.0000      -4.397732      -119.6684
  12   1.0000      -4.397582      -119.6643
  13   1.0000      -4.397103      -119.6513
  14   1.0000      -4.397087      -119.6508
  15   1.0000      -4.395305      -119.6023
  16   1.0000      -4.395171      -119.5987
  17   1.0000      -4.389072      -119.4327
  18   1.0000      -4.388765      -119.4244
  19   1.0000      -3.908609      -106.3587
  20   1.0000      -2.642019       -71.8930
  21   1.0000      -2.632773       -71.6414
  22   1.0000      -2.577870       -70.1474
  23   1.0000      -2.527749       -68.7836
  24   1.0000      -2.527640       -68.7806
  25   1.0000      -2.524861       -68.7050
  26   1.0000      -2.524828       -68.7041
  27   1.0000      -2.524428       -68.6932
  28   1.0000      -2.524371       -68.6916
  29   1.0000      -2.522267       -68.6344
  30   1.0000      -2.522204       -68.6327
  31   1.0000      -2.521821       -68.6222
  32   1.0000      -2.521733       -68.6198
  33   1.0000      -2.520653       -68.5905
  34   1.0000      -2.520493       -68.5861
  35   1.0000      -2.520102       -68.5755
  36   1.0000      -2.519699       -68.5645
  37   1.0000      -2.519245       -68.5522
  38   1.0000      -2.518866       -68.5418
  39   1.0000      -2.518605       -68.5347
  40   1.0000      -2.518308       -68.5266
  41   1.0000      -2.518185       -68.5233
  42   1.0000      -2.516727       -68.4836
  43   1.0000      -2.516430       -68.4755
  44   1.0000      -2.516161       -68.4682
  45   1.0000      -2.516019       -68.4643
  46   1.0000      -2.515124       -68.4400
  47   1.0000      -2.514334       -68.4185
  48   1.0000      -2.514247       -68.4161
  49   1.0000      -2.513623       -68.3992
  50   1.0000      -2.513153       -68.3864
  51   1.0000      -2.512798       -68.3767
  52   1.0000      -2.512464       -68.3676
  53   1.0000      -2.511749       -68.3482
  54   1.0000      -2.511526       -68.3421
  55   1.0000      -2.511395       -68.3385
  56   1.0000      -2.510803       -68.3224
  57   1.0000      -2.508833       -68.2688
  58   1.0000      -2.508713       -68.2656
  59   1.0000      -2.506960       -68.2178
  60   1.0000      -2.505817       -68.1868
  61   1.0000      -2.505437       -68.1764
  62   1.0000      -2.504400       -68.1482
  63   1.0000      -2.504069       -68.1392
  64   1.0000      -2.503958       -68.1362
  65   1.0000      -0.565245       -15.3811
  66   1.0000      -0.560380       -15.2487
  67   1.0000      -0.541690       -14.7401
  68   1.0000      -0.539678       -14.6854
  69   1.0000      -0.526196       -14.3185
  70   1.0000      -0.504525       -13.7288
  71   1.0000      -0.474836       -12.9209
  72   1.0000      -0.473573       -12.8866
  73   1.0000      -0.468736       -12.7550
  74   1.0000      -0.460970       -12.5436
  75   1.0000      -0.460523       -12.5315
  76   1.0000      -0.458521       -12.4770
  77   1.0000      -0.457423       -12.4471
  78   1.0000      -0.453415       -12.3381
  79   1.0000      -0.453385       -12.3372
  80   1.0000      -0.452292       -12.3075
  81   1.0000      -0.451701       -12.2914
  82   1.0000      -0.450431       -12.2568
  83   1.0000      -0.449990       -12.2449
  84   1.0000      -0.448312       -12.1992
  85   1.0000      -0.443896       -12.0790
  86   1.0000      -0.442328       -12.0364
  87   1.0000      -0.441477       -12.0132
  88   1.0000      -0.439977       -11.9724
  89   1.0000      -0.439450       -11.9580
  90   1.0000      -0.438815       -11.9408
  91   1.0000      -0.436675       -11.8825
  92   1.0000      -0.436060       -11.8658
  93   1.0000      -0.435607       -11.8535
  94   1.0000      -0.432663       -11.7734
  95   1.0000      -0.421313       -11.4645
  96   1.0000      -0.419187       -11.4067
  97   1.0000      -0.416099       -11.3226
  98   1.0000      -0.413521       -11.2525
  99   1.0000      -0.412303       -11.2193
 100   1.0000      -0.408136       -11.1059
 101   1.0000      -0.406587       -11.0638
 102   1.0000      -0.403783       -10.9875
 103   1.0000      -0.399606       -10.8738
 104   1.0000      -0.398563       -10.8455
 105   1.0000      -0.397792       -10.8245
 106   1.0000      -0.380311       -10.3488
 107   1.0000      -0.378370       -10.2960
 108   1.0000      -0.376221       -10.2375
 109   1.0000      -0.375836       -10.2270
 110   1.0000      -0.375511       -10.2182
 111   1.0000      -0.374763       -10.1978
 112   1.0000      -0.373267       -10.1571
 113   1.0000      -0.371311       -10.1039
 114   1.0000      -0.370587       -10.0842
 115   1.0000      -0.370488       -10.0815
 116   1.0000      -0.367474        -9.9995
 117   1.0000      -0.366538        -9.9740
 118   1.0000      -0.366333        -9.9684
 119   1.0000      -0.365932        -9.9575
 120   1.0000      -0.364985        -9.9317
 121   1.0000      -0.361910        -9.8481
 122   1.0000      -0.361735        -9.8433
 123   1.0000      -0.360283        -9.8038
 124   1.0000      -0.359402        -9.7798
 125   1.0000      -0.357881        -9.7384
 126   1.0000      -0.355416        -9.6714
 127   1.0000      -0.354798        -9.6545
 128   1.0000      -0.352811        -9.6005
 129   1.0000      -0.351545        -9.5660
 130   1.0000      -0.350415        -9.5353
 131   1.0000      -0.347081        -9.4446
 132   1.0000      -0.345708        -9.4072
 133   1.0000      -0.344189        -9.3659
 134   1.0000      -0.343414        -9.3448
 135   1.0000      -0.341364        -9.2890
 136   1.0000      -0.340815        -9.2741
 137   1.0000      -0.334962        -9.1148
 138   1.0000      -0.332283        -9.0419
 139   1.0000      -0.323875        -8.8131
 140   1.0000      -0.318711        -8.6726
 141   1.0000      -0.316021        -8.5994
 142   1.0000      -0.307147        -8.3579
 143   1.0000      -0.302229        -8.2241
 144   1.0000      -0.239770        -6.5245
 145   1.0000      -0.223458        -6.0806
 146   1.0000      -0.208372        -5.6701
 147   0.0000      -0.127102        -3.4586
 148   0.0000      -0.116913        -3.1814
 149   0.0000      -0.081365        -2.2141
 150   0.0000      -0.066451        -1.8082
 151   0.0000      -0.060772        -1.6537

                 SPIN DOWN ORBITALS
  NO   OCC          E(Eh)            E(eV)
   0   1.0000    -258.336129     -7029.6835
   1   1.0000     -30.804380      -838.2298
   2   1.0000     -26.513632      -721.4726
   3   1.0000     -26.512799      -721.4499
   4   1.0000     -26.505806      -721.2596
   5   1.0000      -4.405567      -119.8816
   6   1.0000      -4.405533      -119.8807
   7   1.0000      -4.405018      -119.8666
   8   1.0000      -4.404976      -119.8655
   9   1.0000      -4.404353      -119.8485
  10   1.0000      -4.404272      -119.8463
  11   1.0000      -4.398930      -119.7010
  12   1.0000      -4.398792      -119.6972
  13   1.0000      -4.397159      -119.6528
  14   1.0000      -4.397150      -119.6525
  15   1.0000      -4.395291      -119.6020
  16   1.0000      -4.395172      -119.5987
  17   1.0000      -4.390256      -119.4649
  18   1.0000      -4.389951      -119.4566
  19   1.0000      -3.666643       -99.7744
  20   1.0000      -2.527995       -68.7903
  21   1.0000      -2.527956       -68.7892
  22   1.0000      -2.524741       -68.7017
  23   1.0000      -2.524718       -68.7011
  24   1.0000      -2.524283       -68.6892
  25   1.0000      -2.524257       -68.6885
  26   1.0000      -2.522668       -68.6453
  27   1.0000      -2.522549       -68.6421
  28   1.0000      -2.521648       -68.6175
  29   1.0000      -2.521610       -68.6165
  30   1.0000      -2.520880       -68.5966
  31   1.0000      -2.520851       -68.5958
  32   1.0000      -2.520357       -68.5824
  33   1.0000      -2.519851       -68.5686
  34   1.0000      -2.519641       -68.5629
  35   1.0000      -2.519407       -68.5566
  36   1.0000      -2.519000       -68.5455
  37   1.0000      -2.518981       -68.5450
  38   1.0000      -2.518902       -68.5428
  39   1.0000      -2.516524       -68.4781
  40   1.0000      -2.516439       -68.4758
  41   1.0000      -2.516311       -68.4723
  42   1.0000      -2.516214       -68.4697
  43   1.0000      -2.515813       -68.4587
  44   1.0000      -2.515369       -68.4467
  45   1.0000      -2.514342       -68.4187
  46   1.0000      -2.513950       -68.4081
  47   1.0000      -2.513518       -68.3963
  48   1.0000      -2.512714       -68.3744
  49   1.0000      -2.512383       -68.3654
  50   1.0000      -2.511950       -68.3536
  51   1.0000      -2.511807       -68.3497
  52   1.0000      -2.511489       -68.3411
  53   1.0000      -2.511006       -68.3279
  54   1.0000      -2.509891       -68.2976
  55   1.0000      -2.509789       -68.2948
  56   1.0000      -2.508580       -68.2619
  57   1.0000      -2.507453       -68.2313
  58   1.0000      -2.506582       -68.2076
  59   1.0000      -2.506262       -68.1989
  60   1.0000      -2.506136       -68.1954
  61   1.0000      -2.504521       -68.1515
  62   1.0000      -2.348696       -63.9113
  63   1.0000      -2.339492       -63.6608
  64   1.0000      -2.335894       -63.5629
  65   1.0000      -0.524793       -14.2803
  66   1.0000      -0.480829       -13.0840
  67   1.0000      -0.480350       -13.0710
  68   1.0000      -0.476008       -12.9528
  69   1.0000      -0.470671       -12.8076
  70   1.0000      -0.470020       -12.7899
  71   1.0000      -0.469475       -12.7751
  72   1.0000      -0.462452       -12.5840
  73   1.0000      -0.461888       -12.5686
  74   1.0000      -0.461349       -12.5539
  75   1.0000      -0.460423       -12.5287
  76   1.0000      -0.458403       -12.4738
  77   1.0000      -0.456189       -12.4135
  78   1.0000      -0.455333       -12.3902
  79   1.0000      -0.454156       -12.3582
  80   1.0000      -0.453743       -12.3470
  81   1.0000      -0.453295       -12.3348
  82   1.0000      -0.450354       -12.2548
  83   1.0000      -0.447301       -12.1717
  84   1.0000      -0.446555       -12.1514
  85   1.0000      -0.443672       -12.0729
  86   1.0000      -0.441531       -12.0147
  87   1.0000      -0.440776       -11.9941
  88   1.0000      -0.440412       -11.9842
  89   1.0000      -0.436917       -11.8891
  90   1.0000      -0.426222       -11.5981
  91   1.0000      -0.421051       -11.4574
  92   1.0000      -0.420503       -11.4425
  93   1.0000      -0.417084       -11.3494
  94   1.0000      -0.416402       -11.3309
  95   1.0000      -0.413431       -11.2500
  96   1.0000      -0.412149       -11.2151
  97   1.0000      -0.410465       -11.1693
  98   1.0000      -0.406257       -11.0548
  99   1.0000      -0.401650       -10.9294
 100   1.0000      -0.401041       -10.9129
 101   1.0000      -0.391739       -10.6598
 102   1.0000      -0.386128       -10.5071
 103   1.0000      -0.384353       -10.4588
 104   1.0000      -0.380758       -10.3609
 105   1.0000      -0.380682       -10.3589
 106   1.0000      -0.378443       -10.2980
 107   1.0000      -0.377876       -10.2825
 108   1.0000      -0.377345       -10.2681
 109   1.0000      -0.373403       -10.1608
 110   1.0000      -0.372506       -10.1364
 111   1.0000      -0.371657       -10.1133
 112   1.0000      -0.370722       -10.0878
 113   1.0000      -0.370081       -10.0704
 114   1.0000      -0.366802        -9.9812
 115   1.0000      -0.366673        -9.9777
 116   1.0000      -0.364968        -9.9313
 117   1.0000      -0.363881        -9.9017
 118   1.0000      -0.363753        -9.8982
 119   1.0000      -0.360254        -9.8030
 120   1.0000      -0.359860        -9.7923
 121   1.0000      -0.358861        -9.7651
 122   1.0000      -0.357785        -9.7358
 123   1.0000      -0.356230        -9.6935
 124   1.0000      -0.353637        -9.6230
 125   1.0000      -0.352098        -9.5811
 126   1.0000      -0.349309        -9.5052
 127   1.0000      -0.348875        -9.4934
 128   1.0000      -0.347578        -9.4581
 129   1.0000      -0.346826        -9.4376
 130   1.0000      -0.345297        -9.3960
 131   1.0000      -0.342767        -9.3272
 132   1.0000      -0.336009        -9.1433
 133   1.0000      -0.335047        -9.1171
 134   1.0000      -0.329541        -8.9673
 135   1.0000      -0.327007        -8.8983
 136   1.0000      -0.323394        -8.8000
 137   1.0000      -0.318366        -8.6632
 138   1.0000      -0.317259        -8.6331
 139   1.0000      -0.316151        -8.6029
 140   1.0000      -0.240548        -6.5457
 141   1.0000      -0.231551        -6.3008
 142   1.0000      -0.222623        -6.0579
 143   1.0000      -0.222351        -6.0505
 144   1.0000      -0.217017        -5.9053
 145   0.0000      -0.083254        -2.2655
 146   0.0000      -0.070753        -1.9253
 147   0.0000      -0.060671        -1.6509
 148   0.0000      -0.059471        -1.6183
 149   0.0000      -0.048808        -1.3281

MULLIKEN ATOMIC CHARGES AND SPIN POPULATIONS
--------------------------------------------
   0 Au:    0.309094   -0.185412
   1 Au:    0.225126    0.017167
   2 Au:    0.323038    0.010239
   3 Au:    0.325784    0.010222
   4 Au:   -0.101162   -0.208833
   5 Au:   -0.079828    0.052475
   6 Au:    0.319270   -0.196873
   7 Au:   -0.100649   -0.209903
   8 Au:    0.309830   -0.185529
   9 Au:    0.224804    0.017329
  10 Au:    0.226622   -0.183260
  11 Au:    0.318787   -0.196563
  12 Au:    0.226275   -0.182907
  13 Au:   -0.079722    0.052910
  14 Fe:   -2.447271    3.388938
Sum of atomic charges         :    0.0000000

LOEWDIN ATOMIC CHARGES AND SPIN POPULATIONS
-------------------------------------------
   0 Au:    0.066033   -0.157760
   1 Au:    0.037599   -0.069238
   2 Au:    0.080230   -0.037073
   3 Au:    0.081957   -0.036971
   4 Au:   -0.048059   -0.125863
   5 Au:   -0.023550   -0.039471
   6 Au:    0.065353   -0.157070
   7 Au:   -0.047864   -0.126116
   8 Au:    0.066043   -0.157804
   9 Au:    0.037470   -0.069331
  10 Au:    0.045215   -0.139574
  11 Au:    0.065451   -0.157320
  12 Au:    0.044980   -0.139527
  13 Au:   -0.023430   -0.038927
  14 Fe:   -0.447428    3.452046

  Mayer bond orders larger than 0.100000
B(  0-Au,  4-Au) :   0.2453 B(  0-Au,  6-Au) :   0.1661 B(  0-Au,  9-Au) :   0.1245
B(  0-Au, 10-Au) :   0.1565 B(  0-Au, 14-Fe) :   0.4667 B(  1-Au,  5-Au) :   0.2786
B(  1-Au,  6-Au) :   0.1308 B(  1-Au,  8-Au) :   0.1234 B(  1-Au, 10-Au) :   0.1450
B(  1-Au, 12-Au) :   0.1449 B(  1-Au, 14-Fe) :   0.4157 B(  2-Au,  3-Au) :   0.1410
B(  2-Au,  4-Au) :   0.2718 B(  2-Au,  5-Au) :   0.3533 B(  2-Au,  7-Au) :   0.2711
B(  3-Au,  4-Au) :   0.2718 B(  3-Au,  7-Au) :   0.2722 B(  3-Au, 13-Au) :   0.3535
B(  4-Au,  5-Au) :   0.1028 B(  4-Au,  6-Au) :   0.2306 B(  4-Au,  7-Au) :   0.1649
B(  4-Au, 13-Au) :   0.1032 B(  4-Au, 14-Fe) :   0.3468 B(  5-Au,  7-Au) :   0.1022
B(  5-Au, 14-Fe) :   0.5046 B(  6-Au, 10-Au) :   0.1467 B(  6-Au, 14-Fe) :   0.4685
B(  7-Au,  8-Au) :   0.2439 B(  7-Au, 11-Au) :   0.2307 B(  7-Au, 13-Au) :   0.1044
B(  7-Au, 14-Fe) :   0.3470 B(  8-Au, 11-Au) :   0.1663 B(  8-Au, 12-Au) :   0.1556
B(  8-Au, 14-Fe) :   0.4675 B(  9-Au, 10-Au) :   0.1445 B(  9-Au, 11-Au) :   0.1311
B(  9-Au, 12-Au) :   0.1437 B(  9-Au, 13-Au) :   0.2788 B(  9-Au, 14-Fe) :   0.4167
B( 10-Au, 12-Au) :   0.2219 B( 10-Au, 14-Fe) :   0.3494 B( 11-Au, 12-Au) :   0.1488
B( 11-Au, 14-Fe) :   0.4676 B( 12-Au, 14-Fe) :   0.3490 B( 13-Au, 14-Fe) :   0.5048

MP2 TOTAL ENERGY:    -3161.743446917 Eh
FINAL SINGLE POINT ENERGY     -3161.743446916728

DIPOLE MOMENT
-------------
                                X             Y             Z
Electronic contribution:     14.64310      -2.02418      -6.60774
Nuclear contribution   :    -14.66029       2.02678       6.62067
                        -----------------------------------------
Total Dipole Moment    :     -0.01719       0.00260       0.01293
                        -----------------------------------------
Magnitude (a.u.)       :      0.02167
Magnitude (Debye)      :      0.05508

Rotational constants in cm-1:     0.001284     0.000989     0.000950
Rotational constants in MHz :    38.485350    29.651388    28.493723

                             ****ORCA TERMINATED NORMALLY****
TOTAL RUN TIME: 0 days 0 hours 33 minutes 30 seconds 512 msec
