                         Program Version 5.0.3 -  RELEASE  -
|  1> !RI-B2PLYP def2-TZVP def2-TZVP/C
|  2> !RIJCOSX VERYSLOWCONV
|  3>
|  4> %scf
|  5>   AutoTRAHIter 200
|  6>   maxiter 400
|  7> end
|  8>
|  9>
| 10> %pal nprocs 6 end
| 11>
| 12> *xyzfile 0 5 pbe.xyz
| 13>
| 14> $new_job
| 15>
| 16> !RI-B2PLYP def2-TZVP def2-TZVP/C
| 17> !RIJCOSX VERYSLOWCONV
| 18>
| 19> %scf
| 20>   AutoTRAHIter 200
| 21>   maxiter 400
| 22> end
| 23>
| 24>
| 25> %pal nprocs 6 end
| 26>
| 27> *xyzfile 0 3 pbe.xyz
| 28>
| 29>
| 30>
| 31>
| 32>
| 33>                          ****END OF INPUT****
 Total Charge           Charge          ....    0
 Multiplicity           Mult            ....    5
 Number of Electrons    NEL             ....  252
MP2 TOTAL ENERGY:    -2671.297623133 Eh
FINAL SINGLE POINT ENERGY     -2671.297623132737

CARTESIAN COORDINATES (ANGSTROEM)
---------------------------------
  Au     9.642388    3.820694    6.848470
  Au    10.876038    7.915393    6.263629
  Au     8.195024    8.605742    6.243049
  Au    10.366426    8.338158    8.952805
  Au     8.283219    7.030907   10.482861
  Au    11.264684    5.766637    7.966380
  Au     9.190510    4.457787    9.505054
  Au     6.510884    5.150604    9.490060
  Au     7.749413    9.240380    8.901614
  Au     7.025685    4.724638    6.802553
  Au     6.121807    7.297399    7.785034
  Au     9.107071    6.031996    5.271044
  Cr     8.693506    6.534630    7.876462

 Multiplicity           Mult            ....    3
 Number of Electrons    NEL             ....  252
 Basis Dimension        Dim             ....  525

ORBITAL ENERGIES
----------------
                 SPIN UP ORBITALS
  NO   OCC          E(Eh)            E(eV)
   0   1.0000    -217.743751     -5925.1087
   1   1.0000     -25.429056      -691.9598
   2   1.0000     -21.568614      -586.9118
   3   1.0000     -21.567295      -586.8759
   4   1.0000     -21.563920      -586.7841
   5   1.0000      -4.394017      -119.5673
   6   1.0000      -4.394009      -119.5671
   7   1.0000      -4.393996      -119.5667
   8   1.0000      -4.393978      -119.5662
   9   1.0000      -4.393249      -119.5464
  10   1.0000      -4.393218      -119.5455
  11   1.0000      -4.393205      -119.5452
  12   1.0000      -4.393197      -119.5450
  13   1.0000      -4.389346      -119.4402
  14   1.0000      -4.389344      -119.4401
  15   1.0000      -4.387378      -119.3866
  16   1.0000      -4.387371      -119.3864
  17   1.0000      -3.217371       -87.5491
  18   1.0000      -2.515497       -68.4501
  19   1.0000      -2.515362       -68.4465
  20   1.0000      -2.515246       -68.4433
  21   1.0000      -2.515007       -68.4368
  22   1.0000      -2.514473       -68.4223
  23   1.0000      -2.514317       -68.4180
  24   1.0000      -2.514170       -68.4140
  25   1.0000      -2.513717       -68.4017
  26   1.0000      -2.513188       -68.3873
  27   1.0000      -2.512796       -68.3766
  28   1.0000      -2.511998       -68.3549
  29   1.0000      -2.511573       -68.3434
  30   1.0000      -2.511525       -68.3421
  31   1.0000      -2.510930       -68.3259
  32   1.0000      -2.510450       -68.3128
  33   1.0000      -2.510395       -68.3113
  34   1.0000      -2.510261       -68.3077
  35   1.0000      -2.509843       -68.2963
  36   1.0000      -2.509640       -68.2908
  37   1.0000      -2.509201       -68.2788
  38   1.0000      -2.508849       -68.2693
  39   1.0000      -2.508427       -68.2578
  40   1.0000      -2.508375       -68.2563
  41   1.0000      -2.507417       -68.2303
  42   1.0000      -2.506005       -68.1919
  43   1.0000      -2.505574       -68.1801
  44   1.0000      -2.505564       -68.1799
  45   1.0000      -2.505070       -68.1664
  46   1.0000      -2.504669       -68.1555
  47   1.0000      -2.504411       -68.1485
  48   1.0000      -2.504270       -68.1446
  49   1.0000      -2.504003       -68.1374
  50   1.0000      -2.503961       -68.1362
  51   1.0000      -2.503665       -68.1282
  52   1.0000      -2.502614       -68.0996
  53   1.0000      -2.502441       -68.0949
  54   1.0000      -2.107434       -57.3462
  55   1.0000      -2.101576       -57.1868
  56   1.0000      -2.100833       -57.1666
  57   1.0000      -0.492106       -13.3909
  58   1.0000      -0.478329       -13.0160
  59   1.0000      -0.465753       -12.6738
  60   1.0000      -0.460888       -12.5414
  61   1.0000      -0.454856       -12.3773
  62   1.0000      -0.454596       -12.3702
  63   1.0000      -0.453883       -12.3508
  64   1.0000      -0.453447       -12.3389
  65   1.0000      -0.452877       -12.3234
  66   1.0000      -0.452700       -12.3186
  67   1.0000      -0.449459       -12.2304
  68   1.0000      -0.438711       -11.9379
  69   1.0000      -0.438286       -11.9264
  70   1.0000      -0.434445       -11.8219
  71   1.0000      -0.434234       -11.8161
  72   1.0000      -0.434198       -11.8151
  73   1.0000      -0.431710       -11.7474
  74   1.0000      -0.426655       -11.6099
  75   1.0000      -0.426350       -11.6016
  76   1.0000      -0.423271       -11.5178
  77   1.0000      -0.422908       -11.5079
  78   1.0000      -0.421421       -11.4674
  79   1.0000      -0.419584       -11.4175
  80   1.0000      -0.419456       -11.4140
  81   1.0000      -0.412004       -11.2112
  82   1.0000      -0.411314       -11.1924
  83   1.0000      -0.410898       -11.1811
  84   1.0000      -0.410313       -11.1652
  85   1.0000      -0.404289       -11.0013
  86   1.0000      -0.403369       -10.9762
  87   1.0000      -0.396384       -10.7862
  88   1.0000      -0.395817       -10.7707
  89   1.0000      -0.388907       -10.5827
  90   1.0000      -0.386526       -10.5179
  91   1.0000      -0.384819       -10.4714
  92   1.0000      -0.374273       -10.1845
  93   1.0000      -0.370275       -10.0757
  94   1.0000      -0.367657       -10.0045
  95   1.0000      -0.367251        -9.9934
  96   1.0000      -0.366084        -9.9617
  97   1.0000      -0.365365        -9.9421
  98   1.0000      -0.365288        -9.9400
  99   1.0000      -0.364350        -9.9145
 100   1.0000      -0.364281        -9.9126
 101   1.0000      -0.357379        -9.7248
 102   1.0000      -0.354851        -9.6560
 103   1.0000      -0.352576        -9.5941
 104   1.0000      -0.351483        -9.5643
 105   1.0000      -0.350339        -9.5332
 106   1.0000      -0.347679        -9.4608
 107   1.0000      -0.346142        -9.4190
 108   1.0000      -0.344887        -9.3848
 109   1.0000      -0.344568        -9.3762
 110   1.0000      -0.344484        -9.3739
 111   1.0000      -0.341991        -9.3060
 112   1.0000      -0.341587        -9.2950
 113   1.0000      -0.341462        -9.2917
 114   1.0000      -0.340221        -9.2579
 115   1.0000      -0.339624        -9.2416
 116   1.0000      -0.335723        -9.1355
 117   1.0000      -0.334983        -9.1154
 118   1.0000      -0.327863        -8.9216
 119   1.0000      -0.308704        -8.4003
 120   1.0000      -0.305480        -8.3125
 121   1.0000      -0.301529        -8.2050
 122   1.0000      -0.298280        -8.1166
 123   1.0000      -0.296742        -8.0748
 124   1.0000      -0.276622        -7.5273
 125   1.0000      -0.243418        -6.6238
 126   1.0000      -0.216336        -5.8868
 127   0.0000      -0.111021        -3.0210
 128   0.0000      -0.097564        -2.6548
 129   0.0000      -0.093853        -2.5539
 130   0.0000      -0.079688        -2.1684
 131   0.0000      -0.049773        -1.3544

                 SPIN DOWN ORBITALS
  NO   OCC          E(Eh)            E(eV)
   0   1.0000    -217.742457     -5925.0735
   1   1.0000     -25.359069      -690.0554
   2   1.0000     -21.508322      -585.2712
   3   1.0000     -21.504401      -585.1645
   4   1.0000     -21.493238      -584.8607
   5   1.0000      -4.394323      -119.5756
   6   1.0000      -4.394315      -119.5754
   7   1.0000      -4.394295      -119.5749
   8   1.0000      -4.394278      -119.5744
   9   1.0000      -4.393709      -119.5589
  10   1.0000      -4.393680      -119.5581
  11   1.0000      -4.393662      -119.5576
  12   1.0000      -4.393656      -119.5575
  13   1.0000      -4.389296      -119.4388
  14   1.0000      -4.389269      -119.4381
  15   1.0000      -4.387019      -119.3769
  16   1.0000      -4.387009      -119.3766
  17   1.0000      -3.001100       -81.6641
  18   1.0000      -2.514330       -68.4184
  19   1.0000      -2.514162       -68.4138
  20   1.0000      -2.514141       -68.4133
  21   1.0000      -2.514077       -68.4115
  22   1.0000      -2.513974       -68.4087
  23   1.0000      -2.513918       -68.4072
  24   1.0000      -2.513855       -68.4055
  25   1.0000      -2.513681       -68.4007
  26   1.0000      -2.512419       -68.3664
  27   1.0000      -2.511961       -68.3539
  28   1.0000      -2.511779       -68.3490
  29   1.0000      -2.511632       -68.3450
  30   1.0000      -2.511291       -68.3357
  31   1.0000      -2.510864       -68.3241
  32   1.0000      -2.510552       -68.3156
  33   1.0000      -2.510142       -68.3044
  34   1.0000      -2.509976       -68.2999
  35   1.0000      -2.509519       -68.2875
  36   1.0000      -2.509366       -68.2833
  37   1.0000      -2.509317       -68.2820
  38   1.0000      -2.508669       -68.2644
  39   1.0000      -2.508285       -68.2539
  40   1.0000      -2.508164       -68.2506
  41   1.0000      -2.507234       -68.2253
  42   1.0000      -2.506048       -68.1930
  43   1.0000      -2.505618       -68.1813
  44   1.0000      -2.505319       -68.1732
  45   1.0000      -2.504855       -68.1606
  46   1.0000      -2.504204       -68.1429
  47   1.0000      -2.504102       -68.1401
  48   1.0000      -2.503981       -68.1368
  49   1.0000      -2.503830       -68.1327
  50   1.0000      -2.503146       -68.1141
  51   1.0000      -2.502917       -68.1078
  52   1.0000      -2.502575       -68.0985
  53   1.0000      -2.502414       -68.0941
  54   1.0000      -1.868270       -50.8382
  55   1.0000      -1.860020       -50.6137
  56   1.0000      -1.835143       -49.9368
  57   1.0000      -0.487206       -13.2576
  58   1.0000      -0.459388       -12.5006
  59   1.0000      -0.456411       -12.4196
  60   1.0000      -0.455986       -12.4080
  61   1.0000      -0.454858       -12.3773
  62   1.0000      -0.454528       -12.3683
  63   1.0000      -0.452659       -12.3175
  64   1.0000      -0.452376       -12.3098
  65   1.0000      -0.451586       -12.2883
  66   1.0000      -0.441532       -12.0147
  67   1.0000      -0.440724       -11.9927
  68   1.0000      -0.440571       -11.9885
  69   1.0000      -0.439771       -11.9668
  70   1.0000      -0.435877       -11.8608
  71   1.0000      -0.435491       -11.8503
  72   1.0000      -0.434698       -11.8287
  73   1.0000      -0.433518       -11.7966
  74   1.0000      -0.428529       -11.6609
  75   1.0000      -0.427843       -11.6422
  76   1.0000      -0.424859       -11.5610
  77   1.0000      -0.424834       -11.5603
  78   1.0000      -0.424026       -11.5383
  79   1.0000      -0.422852       -11.5064
  80   1.0000      -0.414502       -11.2792
  81   1.0000      -0.413257       -11.2453
  82   1.0000      -0.411559       -11.1991
  83   1.0000      -0.406952       -11.0737
  84   1.0000      -0.406804       -11.0697
  85   1.0000      -0.405361       -11.0304
  86   1.0000      -0.398968       -10.8565
  87   1.0000      -0.398089       -10.8326
  88   1.0000      -0.384503       -10.4629
  89   1.0000      -0.384223       -10.4552
  90   1.0000      -0.382956       -10.4208
  91   1.0000      -0.381981       -10.3942
  92   1.0000      -0.376276       -10.2390
  93   1.0000      -0.369899       -10.0655
  94   1.0000      -0.367892       -10.0109
  95   1.0000      -0.367833       -10.0093
  96   1.0000      -0.366983        -9.9861
  97   1.0000      -0.366886        -9.9835
  98   1.0000      -0.366749        -9.9797
  99   1.0000      -0.366210        -9.9651
 100   1.0000      -0.364189        -9.9101
 101   1.0000      -0.360096        -9.7987
 102   1.0000      -0.356618        -9.7041
 103   1.0000      -0.352336        -9.5876
 104   1.0000      -0.350888        -9.5481
 105   1.0000      -0.349331        -9.5058
 106   1.0000      -0.348633        -9.4868
 107   1.0000      -0.345079        -9.3901
 108   1.0000      -0.344812        -9.3828
 109   1.0000      -0.344417        -9.3721
 110   1.0000      -0.344265        -9.3679
 111   1.0000      -0.342780        -9.3275
 112   1.0000      -0.342527        -9.3206
 113   1.0000      -0.340775        -9.2730
 114   1.0000      -0.336010        -9.1433
 115   1.0000      -0.335108        -9.1188
 116   1.0000      -0.330090        -8.9822
 117   1.0000      -0.313801        -8.5390
 118   1.0000      -0.312279        -8.4975
 119   1.0000      -0.304697        -8.2912
 120   1.0000      -0.290874        -7.9151
 121   1.0000      -0.231411        -6.2970
 122   1.0000      -0.224384        -6.1058
 123   1.0000      -0.221457        -6.0262
 124   1.0000      -0.198650        -5.4055
 125   0.0000      -0.102345        -2.7850
 126   0.0000      -0.055386        -1.5071
 127   0.0000      -0.040727        -1.1082
 128   0.0000      -0.040073        -1.0904
 129   0.0000      -0.039331        -1.0702

MULLIKEN ATOMIC CHARGES AND SPIN POPULATIONS
--------------------------------------------
   0 Au:    0.480090    0.002459
   1 Au:    0.501509    0.010540
   2 Au:    0.415425   -0.150262
   3 Au:    0.415943   -0.150260
   4 Au:    0.415397   -0.119517
   5 Au:    0.415094   -0.120421
   6 Au:    0.415678   -0.151920
   7 Au:    0.501484    0.010242
   8 Au:    0.480339    0.003549
   9 Au:    0.415328   -0.151879
  10 Au:    0.415203   -0.119491
  11 Au:    0.415218   -0.120880
  12 Cr:   -5.286706    3.057841
Sum of atomic charges         :   -0.0000000

LOEWDIN ATOMIC CHARGES AND SPIN POPULATIONS
-------------------------------------------
   0 Au:    0.120297   -0.121947
   1 Au:    0.109974   -0.089533
   2 Au:    0.106326   -0.146433
   3 Au:    0.106265   -0.146475
   4 Au:    0.104119   -0.134515
   5 Au:    0.103707   -0.134774
   6 Au:    0.105623   -0.146846
   7 Au:    0.109992   -0.089828
   8 Au:    0.120099   -0.121207
   9 Au:    0.105756   -0.146908
  10 Au:    0.104210   -0.134731
  11 Au:    0.103732   -0.134670
  12 Cr:   -1.300101    3.547867

  Mayer bond orders larger than 0.100000
B(  0-Au,  5-Au) :   0.1829 B(  0-Au,  6-Au) :   0.1813 B(  0-Au,  9-Au) :   0.1817
B(  0-Au, 11-Au) :   0.1836 B(  0-Au, 12-Cr) :   0.4808 B(  1-Au,  2-Au) :   0.1811
B(  1-Au,  3-Au) :   0.1805 B(  1-Au,  5-Au) :   0.1833 B(  1-Au, 11-Au) :   0.1839
B(  1-Au, 12-Cr) :   0.4582 B(  2-Au,  6-Au) :   0.1115 B(  2-Au,  8-Au) :   0.1815
B(  2-Au, 10-Au) :   0.1478 B(  2-Au, 11-Au) :   0.1494 B(  2-Au, 12-Cr) :   0.5245
B(  3-Au,  4-Au) :   0.1477 B(  3-Au,  5-Au) :   0.1499 B(  3-Au,  8-Au) :   0.1818
B(  3-Au,  9-Au) :   0.1114 B(  3-Au, 12-Cr) :   0.5238 B(  4-Au,  6-Au) :   0.1492
B(  4-Au,  7-Au) :   0.1834 B(  4-Au,  8-Au) :   0.1836 B(  4-Au, 11-Au) :   0.1086
B(  4-Au, 12-Cr) :   0.5653 B(  5-Au,  6-Au) :   0.1470 B(  5-Au, 10-Au) :   0.1085
B(  5-Au, 12-Cr) :   0.5658 B(  6-Au,  7-Au) :   0.1815 B(  6-Au, 12-Cr) :   0.5238
B(  7-Au,  9-Au) :   0.1810 B(  7-Au, 10-Au) :   0.1831 B(  7-Au, 12-Cr) :   0.4585
B(  8-Au, 10-Au) :   0.1831 B(  8-Au, 12-Cr) :   0.4794 B(  9-Au, 10-Au) :   0.1492
B(  9-Au, 11-Au) :   0.1469 B(  9-Au, 12-Cr) :   0.5233 B( 10-Au, 12-Cr) :   0.5663
B( 11-Au, 12-Cr) :   0.5646

MP2 TOTAL ENERGY:    -2671.314361140 Eh
FINAL SINGLE POINT ENERGY     -2671.314361140259

DIPOLE MOMENT
-------------
                                X             Y             Z
Electronic contribution:      0.03260      -0.10366      -0.01484
Nuclear contribution   :     -0.03240       0.10304       0.01462
                        -----------------------------------------
Total Dipole Moment    :      0.00019      -0.00062      -0.00022
                        -----------------------------------------
Magnitude (a.u.)       :      0.00069
Magnitude (Debye)      :      0.00175

Rotational constants in cm-1:     0.001440     0.001439     0.001210
Rotational constants in MHz :    43.175280    43.133640    36.285925

                             ****ORCA TERMINATED NORMALLY****
TOTAL RUN TIME: 0 days 1 hours 44 minutes 30 seconds 13 msec
