                         Program Version 5.0.3 -  RELEASE  -
|  1> !PBE def2-TZVP VERYSLOWCONV
|  2>
|  3> %scf
|  4>   AutoTRAHIter 200
|  5>   maxiter 400
|  6> end
|  7>
|  8>
|  9> %pal nprocs 6 end
| 10>
| 11> *xyzfile 0 5 pbe.xyz
| 12>
| 13> $new_job
| 14>
| 15> !PBE def2-TZVP VERYSLOWCONV
| 16>
| 17> %scf
| 18>   AutoTRAHIter 200
| 19>   maxiter 400
| 20> end
| 21>
| 22>
| 23> %pal nprocs 6 end
| 24>
| 25> *xyzfile 0 3 pbe.xyz
| 26>
| 27>
| 28>
| 29>
| 30>
| 31>                          ****END OF INPUT****
 Total Charge           Charge          ....    0
 Multiplicity           Mult            ....    5
 Number of Electrons    NEL             ....  252
FINAL SINGLE POINT ENERGY     -2674.142880479252

CARTESIAN COORDINATES (ANGSTROEM)
---------------------------------
  Au     9.642388    3.820694    6.848470
  Au    10.876038    7.915393    6.263629
  Au     8.195024    8.605742    6.243049
  Au    10.366426    8.338158    8.952805
  Au     8.283219    7.030907   10.482861
  Au    11.264684    5.766637    7.966380
  Au     9.190510    4.457787    9.505054
  Au     6.510884    5.150604    9.490060
  Au     7.749413    9.240380    8.901614
  Au     7.025685    4.724638    6.802553
  Au     6.121807    7.297399    7.785034
  Au     9.107071    6.031996    5.271044
  Cr     8.693506    6.534630    7.876462

 Multiplicity           Mult            ....    3
 Number of Electrons    NEL             ....  252
 Basis Dimension        Dim             ....  525

ORBITAL ENERGIES
----------------
                 SPIN UP ORBITALS
  NO   OCC          E(Eh)            E(eV)
   0   1.0000    -214.509386     -5837.0971
   1   1.0000     -24.311129      -661.5395
   2   1.0000     -20.677610      -562.6664
   3   1.0000     -20.673587      -562.5569
   4   1.0000     -20.673575      -562.5566
   5   1.0000      -4.024159      -109.5029
   6   1.0000      -4.024146      -109.5026
   7   1.0000      -4.024106      -109.5015
   8   1.0000      -4.024093      -109.5011
   9   1.0000      -4.024059      -109.5002
  10   1.0000      -4.024048      -109.4999
  11   1.0000      -4.024004      -109.4987
  12   1.0000      -4.023997      -109.4985
  13   1.0000      -4.016152      -109.2851
  14   1.0000      -4.016145      -109.2849
  15   1.0000      -4.016096      -109.2835
  16   1.0000      -4.016060      -109.2825
  17   1.0000      -2.806705       -76.3743
  18   1.0000      -2.241513       -60.9947
  19   1.0000      -2.241415       -60.9920
  20   1.0000      -2.240900       -60.9780
  21   1.0000      -2.240861       -60.9769
  22   1.0000      -2.240774       -60.9746
  23   1.0000      -2.240740       -60.9736
  24   1.0000      -2.239858       -60.9496
  25   1.0000      -2.239707       -60.9455
  26   1.0000      -2.238994       -60.9261
  27   1.0000      -2.238700       -60.9181
  28   1.0000      -2.237441       -60.8839
  29   1.0000      -2.237383       -60.8823
  30   1.0000      -2.237368       -60.8819
  31   1.0000      -2.237317       -60.8805
  32   1.0000      -2.236396       -60.8554
  33   1.0000      -2.235995       -60.8445
  34   1.0000      -2.234064       -60.7920
  35   1.0000      -2.234039       -60.7913
  36   1.0000      -2.233547       -60.7779
  37   1.0000      -2.233512       -60.7769
  38   1.0000      -2.233348       -60.7725
  39   1.0000      -2.233326       -60.7719
  40   1.0000      -2.233075       -60.7650
  41   1.0000      -2.232489       -60.7491
  42   1.0000      -2.229893       -60.6785
  43   1.0000      -2.229740       -60.6743
  44   1.0000      -2.229708       -60.6734
  45   1.0000      -2.229650       -60.6719
  46   1.0000      -2.228827       -60.6495
  47   1.0000      -2.228727       -60.6467
  48   1.0000      -2.228709       -60.6462
  49   1.0000      -2.228645       -60.6445
  50   1.0000      -2.227396       -60.6105
  51   1.0000      -2.227376       -60.6100
  52   1.0000      -2.227330       -60.6087
  53   1.0000      -2.227243       -60.6064
  54   1.0000      -1.799611       -48.9699
  55   1.0000      -1.794053       -48.8187
  56   1.0000      -1.794033       -48.8181
  57   1.0000      -0.420920       -11.4538
  58   1.0000      -0.373515       -10.1639
  59   1.0000      -0.373440       -10.1618
  60   1.0000      -0.369597       -10.0572
  61   1.0000      -0.363944        -9.9034
  62   1.0000      -0.359174        -9.7736
  63   1.0000      -0.359093        -9.7714
  64   1.0000      -0.357081        -9.7167
  65   1.0000      -0.351038        -9.5522
  66   1.0000      -0.348660        -9.4875
  67   1.0000      -0.348135        -9.4732
  68   1.0000      -0.338626        -9.2145
  69   1.0000      -0.333954        -9.0873
  70   1.0000      -0.333874        -9.0852
  71   1.0000      -0.332058        -9.0357
  72   1.0000      -0.331737        -9.0270
  73   1.0000      -0.331574        -9.0226
  74   1.0000      -0.327214        -8.9040
  75   1.0000      -0.326968        -8.8972
  76   1.0000      -0.324704        -8.8356
  77   1.0000      -0.320314        -8.7162
  78   1.0000      -0.318841        -8.6761
  79   1.0000      -0.318251        -8.6600
  80   1.0000      -0.317261        -8.6331
  81   1.0000      -0.317223        -8.6321
  82   1.0000      -0.315692        -8.5904
  83   1.0000      -0.315407        -8.5827
  84   1.0000      -0.311864        -8.4862
  85   1.0000      -0.305799        -8.3212
  86   1.0000      -0.297731        -8.1017
  87   1.0000      -0.297189        -8.0869
  88   1.0000      -0.296946        -8.0803
  89   1.0000      -0.288331        -7.8459
  90   1.0000      -0.288206        -7.8425
  91   1.0000      -0.287803        -7.8315
  92   1.0000      -0.278116        -7.5679
  93   1.0000      -0.274047        -7.4572
  94   1.0000      -0.273955        -7.4547
  95   1.0000      -0.270924        -7.3722
  96   1.0000      -0.269782        -7.3411
  97   1.0000      -0.269467        -7.3326
  98   1.0000      -0.269075        -7.3219
  99   1.0000      -0.267774        -7.2865
 100   1.0000      -0.267073        -7.2674
 101   1.0000      -0.261695        -7.1211
 102   1.0000      -0.260850        -7.0981
 103   1.0000      -0.255331        -6.9479
 104   1.0000      -0.254819        -6.9340
 105   1.0000      -0.254577        -6.9274
 106   1.0000      -0.253674        -6.9028
 107   1.0000      -0.253462        -6.8971
 108   1.0000      -0.253337        -6.8936
 109   1.0000      -0.253126        -6.8879
 110   1.0000      -0.250101        -6.8056
 111   1.0000      -0.249876        -6.7995
 112   1.0000      -0.249799        -6.7974
 113   1.0000      -0.247042        -6.7223
 114   1.0000      -0.245557        -6.6819
 115   1.0000      -0.245427        -6.6784
 116   1.0000      -0.240813        -6.5529
 117   1.0000      -0.240743        -6.5510
 118   1.0000      -0.237947        -6.4749
 119   1.0000      -0.233978        -6.3669
 120   1.0000      -0.223233        -6.0745
 121   1.0000      -0.220158        -5.9908
 122   1.0000      -0.220156        -5.9907
 123   1.0000      -0.213928        -5.8213
 124   1.0000      -0.213906        -5.8207
 125   1.0000      -0.206905        -5.6302
 126   1.0000      -0.192861        -5.2480
 127   0.0000      -0.168062        -4.5732
 128   0.0000      -0.168030        -4.5723
 129   0.0000      -0.161818        -4.4033
 130   0.0000      -0.157757        -4.2928
 131   0.0000      -0.115108        -3.1322

                 SPIN DOWN ORBITALS
  NO   OCC          E(Eh)            E(eV)
   0   1.0000    -214.508996     -5837.0865
   1   1.0000     -24.269218      -660.3990
   2   1.0000     -20.647162      -561.8378
   3   1.0000     -20.640771      -561.6639
   4   1.0000     -20.640761      -561.6637
   5   1.0000      -4.023980      -109.4981
   6   1.0000      -4.023966      -109.4977
   7   1.0000      -4.023925      -109.4966
   8   1.0000      -4.023912      -109.4962
   9   1.0000      -4.023880      -109.4953
  10   1.0000      -4.023867      -109.4950
  11   1.0000      -4.023823      -109.4938
  12   1.0000      -4.023816      -109.4936
  13   1.0000      -4.016237      -109.2874
  14   1.0000      -4.016226      -109.2871
  15   1.0000      -4.016174      -109.2857
  16   1.0000      -4.016155      -109.2851
  17   1.0000      -2.694288       -73.3153
  18   1.0000      -2.240913       -60.9784
  19   1.0000      -2.240805       -60.9754
  20   1.0000      -2.240354       -60.9631
  21   1.0000      -2.240318       -60.9621
  22   1.0000      -2.240236       -60.9599
  23   1.0000      -2.240205       -60.9591
  24   1.0000      -2.239286       -60.9341
  25   1.0000      -2.239121       -60.9296
  26   1.0000      -2.239091       -60.9288
  27   1.0000      -2.238803       -60.9209
  28   1.0000      -2.237498       -60.8854
  29   1.0000      -2.237443       -60.8839
  30   1.0000      -2.237402       -60.8828
  31   1.0000      -2.237355       -60.8815
  32   1.0000      -2.236499       -60.8582
  33   1.0000      -2.236093       -60.8472
  34   1.0000      -2.233953       -60.7890
  35   1.0000      -2.233931       -60.7884
  36   1.0000      -2.233423       -60.7745
  37   1.0000      -2.233388       -60.7736
  38   1.0000      -2.233224       -60.7691
  39   1.0000      -2.233203       -60.7685
  40   1.0000      -2.232941       -60.7614
  41   1.0000      -2.232340       -60.7451
  42   1.0000      -2.229863       -60.6777
  43   1.0000      -2.229731       -60.6741
  44   1.0000      -2.229685       -60.6728
  45   1.0000      -2.229632       -60.6714
  46   1.0000      -2.228886       -60.6511
  47   1.0000      -2.228777       -60.6481
  48   1.0000      -2.228747       -60.6473
  49   1.0000      -2.228709       -60.6462
  50   1.0000      -2.227574       -60.6154
  51   1.0000      -2.227558       -60.6149
  52   1.0000      -2.227508       -60.6136
  53   1.0000      -2.227407       -60.6108
  54   1.0000      -1.694083       -46.0984
  55   1.0000      -1.680844       -45.7381
  56   1.0000      -1.680809       -45.7371
  57   1.0000      -0.414913       -11.2903
  58   1.0000      -0.372828       -10.1452
  59   1.0000      -0.372745       -10.1429
  60   1.0000      -0.364467        -9.9176
  61   1.0000      -0.363214        -9.8836
  62   1.0000      -0.356559        -9.7025
  63   1.0000      -0.356241        -9.6938
  64   1.0000      -0.356161        -9.6916
  65   1.0000      -0.349716        -9.5163
  66   1.0000      -0.343683        -9.3521
  67   1.0000      -0.342987        -9.3332
  68   1.0000      -0.338022        -9.1981
  69   1.0000      -0.334955        -9.1146
  70   1.0000      -0.334870        -9.1123
  71   1.0000      -0.333283        -9.0691
  72   1.0000      -0.331735        -9.0270
  73   1.0000      -0.331566        -9.0224
  74   1.0000      -0.327848        -8.9212
  75   1.0000      -0.327589        -8.9141
  76   1.0000      -0.325906        -8.8683
  77   1.0000      -0.321195        -8.7402
  78   1.0000      -0.319803        -8.7023
  79   1.0000      -0.319056        -8.6819
  80   1.0000      -0.318350        -8.6628
  81   1.0000      -0.318312        -8.6617
  82   1.0000      -0.312839        -8.5128
  83   1.0000      -0.311245        -8.4694
  84   1.0000      -0.310950        -8.4614
  85   1.0000      -0.306851        -8.3498
  86   1.0000      -0.298310        -8.1174
  87   1.0000      -0.298068        -8.1108
  88   1.0000      -0.292599        -7.9620
  89   1.0000      -0.287509        -7.8235
  90   1.0000      -0.287393        -7.8204
  91   1.0000      -0.287355        -7.8193
  92   1.0000      -0.279023        -7.5926
  93   1.0000      -0.275194        -7.4884
  94   1.0000      -0.275104        -7.4860
  95   1.0000      -0.272572        -7.4171
  96   1.0000      -0.270796        -7.3687
  97   1.0000      -0.270484        -7.3602
  98   1.0000      -0.268653        -7.3104
  99   1.0000      -0.268004        -7.2928
 100   1.0000      -0.267611        -7.2821
 101   1.0000      -0.262849        -7.1525
 102   1.0000      -0.262325        -7.1382
 103   1.0000      -0.256834        -6.9888
 104   1.0000      -0.255263        -6.9461
 105   1.0000      -0.255016        -6.9393
 106   1.0000      -0.254833        -6.9344
 107   1.0000      -0.253975        -6.9110
 108   1.0000      -0.253762        -6.9052
 109   1.0000      -0.253699        -6.9035
 110   1.0000      -0.250843        -6.8258
 111   1.0000      -0.250376        -6.8131
 112   1.0000      -0.250297        -6.8109
 113   1.0000      -0.247802        -6.7430
 114   1.0000      -0.246180        -6.6989
 115   1.0000      -0.246054        -6.6955
 116   1.0000      -0.242013        -6.5855
 117   1.0000      -0.241947        -6.5837
 118   1.0000      -0.238611        -6.4929
 119   1.0000      -0.235488        -6.4080
 120   1.0000      -0.220548        -6.0014
 121   1.0000      -0.209581        -5.7030
 122   1.0000      -0.202825        -5.5192
 123   1.0000      -0.202753        -5.5172
 124   1.0000      -0.186529        -5.0757
 125   0.0000      -0.168105        -4.5744
 126   0.0000      -0.121162        -3.2970
 127   0.0000      -0.121111        -3.2956
 128   0.0000      -0.118347        -3.2204
 129   0.0000      -0.112981        -3.0744

MULLIKEN ATOMIC CHARGES AND SPIN POPULATIONS
--------------------------------------------
   0 Au:    0.498122    0.006058
   1 Au:    0.499188    0.006537
   2 Au:    0.447139   -0.059643
   3 Au:    0.447566   -0.059782
   4 Au:    0.448972   -0.059826
   5 Au:    0.448971   -0.059919
   6 Au:    0.447552   -0.060237
   7 Au:    0.499207    0.006200
   8 Au:    0.498629    0.007120
   9 Au:    0.447224   -0.060246
  10 Au:    0.449110   -0.059675
  11 Au:    0.448599   -0.060142
  12 Cr:   -5.580278    2.453556
Sum of atomic charges         :   -0.0000000

LOEWDIN ATOMIC CHARGES AND SPIN POPULATIONS
-------------------------------------------
   0 Au:    0.112184   -0.056133
   1 Au:    0.112292   -0.055764
   2 Au:    0.123411   -0.075702
   3 Au:    0.123326   -0.075812
   4 Au:    0.122874   -0.075922
   5 Au:    0.122470   -0.076046
   6 Au:    0.122683   -0.076033
   7 Au:    0.112264   -0.056058
   8 Au:    0.112258   -0.055261
   9 Au:    0.122836   -0.076067
  10 Au:    0.122986   -0.075943
  11 Au:    0.122485   -0.076068
  12 Cr:   -1.432069    2.830809

  Mayer bond orders larger than 0.100000
B(  0-Au,  5-Au) :   0.2305 B(  0-Au,  6-Au) :   0.2307 B(  0-Au,  9-Au) :   0.2309
B(  0-Au, 11-Au) :   0.2310 B(  0-Au, 12-Cr) :   0.4972 B(  1-Au,  2-Au) :   0.2308
B(  1-Au,  3-Au) :   0.2302 B(  1-Au,  5-Au) :   0.2306 B(  1-Au, 11-Au) :   0.2313
B(  1-Au, 12-Cr) :   0.4978 B(  2-Au,  6-Au) :   0.1138 B(  2-Au,  8-Au) :   0.2308
B(  2-Au, 10-Au) :   0.1798 B(  2-Au, 11-Au) :   0.1784 B(  2-Au, 12-Cr) :   0.6709
B(  3-Au,  4-Au) :   0.1797 B(  3-Au,  5-Au) :   0.1790 B(  3-Au,  8-Au) :   0.2310
B(  3-Au,  9-Au) :   0.1138 B(  3-Au, 12-Cr) :   0.6706 B(  4-Au,  6-Au) :   0.1781
B(  4-Au,  7-Au) :   0.2308 B(  4-Au,  8-Au) :   0.2309 B(  4-Au, 11-Au) :   0.1146
B(  4-Au, 12-Cr) :   0.6694 B(  5-Au,  6-Au) :   0.1787 B(  5-Au, 10-Au) :   0.1147
B(  5-Au, 12-Cr) :   0.6698 B(  6-Au,  7-Au) :   0.2313 B(  6-Au, 12-Cr) :   0.6704
B(  7-Au,  9-Au) :   0.2307 B(  7-Au, 10-Au) :   0.2304 B(  7-Au, 12-Cr) :   0.4976
B(  8-Au, 10-Au) :   0.2305 B(  8-Au, 12-Cr) :   0.4970 B(  9-Au, 10-Au) :   0.1781
B(  9-Au, 11-Au) :   0.1785 B(  9-Au, 12-Cr) :   0.6706 B( 10-Au, 12-Cr) :   0.6703
B( 11-Au, 12-Cr) :   0.6690

FINAL SINGLE POINT ENERGY     -2674.164126609636

DIPOLE MOMENT
-------------
                                X             Y             Z
Electronic contribution:      0.03242      -0.10329      -0.01482
Nuclear contribution   :     -0.03240       0.10304       0.01462
                        -----------------------------------------
Total Dipole Moment    :      0.00001      -0.00025      -0.00020
                        -----------------------------------------
Magnitude (a.u.)       :      0.00032
Magnitude (Debye)      :      0.00081

Rotational constants in cm-1:     0.001440     0.001439     0.001210
Rotational constants in MHz :    43.175280    43.133640    36.285925

                             ****ORCA TERMINATED NORMALLY****
TOTAL RUN TIME: 0 days 1 hours 42 minutes 55 seconds 558 msec
