                         Program Version 5.0.3 -  RELEASE  -
|  1> !R2SCAN def2-TZVP VERYSLOWCONV
|  2> !KDIIS
|  3> %scf
|  4>   AutoTRAHIter 200
|  5>   maxiter 400
|  6> end
|  7>
|  8> %pal nprocs 6 end
|  9>
| 10> *xyzfile 0 5 pbe.xyz
| 11>
| 12> $new_job
| 13>
| 14> !R2SCAN def2-TZVP VERYSLOWCONV
| 15> !KDIIS
| 16> %scf
| 17>   AutoTRAHIter 200
| 18>   maxiter 400
| 19> end
| 20>
| 21>
| 22> %pal nprocs 6 end
| 23>
| 24> *xyzfile 0 3 pbe.xyz
| 25>
| 26>
| 27>
| 28>
| 29>
| 30>                          ****END OF INPUT****
 Total Charge           Charge          ....    0
 Multiplicity           Mult            ....    5
 Number of Electrons    NEL             ....  252
FINAL SINGLE POINT ENERGY     -2674.583354153719

CARTESIAN COORDINATES (ANGSTROEM)
---------------------------------
  Au     9.642388    3.820694    6.848470
  Au    10.876038    7.915393    6.263629
  Au     8.195024    8.605742    6.243049
  Au    10.366426    8.338158    8.952805
  Au     8.283219    7.030907   10.482861
  Au    11.264684    5.766637    7.966380
  Au     9.190510    4.457787    9.505054
  Au     6.510884    5.150604    9.490060
  Au     7.749413    9.240380    8.901614
  Au     7.025685    4.724638    6.802553
  Au     6.121807    7.297399    7.785034
  Au     9.107071    6.031996    5.271044
  Cr     8.693506    6.534630    7.876462

 Multiplicity           Mult            ....    3
 Number of Electrons    NEL             ....  252
 Basis Dimension        Dim             ....  525

ORBITAL ENERGIES
----------------
                 SPIN UP ORBITALS
  NO   OCC          E(Eh)            E(eV)
   0   1.0000    -215.304873     -5858.7435
   1   1.0000     -24.606611      -669.5799
   2   1.0000     -20.875350      -568.0471
   3   1.0000     -20.872073      -567.9580
   4   1.0000     -20.872051      -567.9574
   5   1.0000      -4.114574      -111.9633
   6   1.0000      -4.114556      -111.9628
   7   1.0000      -4.114504      -111.9613
   8   1.0000      -4.114487      -111.9609
   9   1.0000      -4.114475      -111.9606
  10   1.0000      -4.114461      -111.9602
  11   1.0000      -4.114405      -111.9586
  12   1.0000      -4.114393      -111.9583
  13   1.0000      -4.106932      -111.7553
  14   1.0000      -4.106925      -111.7551
  15   1.0000      -4.106868      -111.7536
  16   1.0000      -4.106844      -111.7529
  17   1.0000      -2.920203       -79.4628
  18   1.0000      -2.304647       -62.7126
  19   1.0000      -2.304535       -62.7096
  20   1.0000      -2.304011       -62.6953
  21   1.0000      -2.303987       -62.6947
  22   1.0000      -2.303875       -62.6916
  23   1.0000      -2.303856       -62.6911
  24   1.0000      -2.302875       -62.6644
  25   1.0000      -2.302704       -62.6598
  26   1.0000      -2.302451       -62.6529
  27   1.0000      -2.302119       -62.6438
  28   1.0000      -2.300752       -62.6066
  29   1.0000      -2.300707       -62.6054
  30   1.0000      -2.300645       -62.6037
  31   1.0000      -2.300609       -62.6028
  32   1.0000      -2.299671       -62.5772
  33   1.0000      -2.299194       -62.5643
  34   1.0000      -2.297700       -62.5236
  35   1.0000      -2.297663       -62.5226
  36   1.0000      -2.297132       -62.5081
  37   1.0000      -2.297112       -62.5076
  38   1.0000      -2.296910       -62.5021
  39   1.0000      -2.296902       -62.5019
  40   1.0000      -2.296638       -62.4947
  41   1.0000      -2.295983       -62.4769
  42   1.0000      -2.293307       -62.4041
  43   1.0000      -2.293111       -62.3987
  44   1.0000      -2.293078       -62.3978
  45   1.0000      -2.293020       -62.3963
  46   1.0000      -2.292411       -62.3797
  47   1.0000      -2.292291       -62.3764
  48   1.0000      -2.292277       -62.3760
  49   1.0000      -2.292216       -62.3744
  50   1.0000      -2.290975       -62.3406
  51   1.0000      -2.290944       -62.3398
  52   1.0000      -2.290908       -62.3388
  53   1.0000      -2.290806       -62.3360
  54   1.0000      -1.868609       -50.8474
  55   1.0000      -1.865621       -50.7661
  56   1.0000      -1.865606       -50.7657
  57   1.0000      -0.425623       -11.5818
  58   1.0000      -0.378690       -10.3047
  59   1.0000      -0.378628       -10.3030
  60   1.0000      -0.378469       -10.2987
  61   1.0000      -0.369928       -10.0662
  62   1.0000      -0.367092        -9.9891
  63   1.0000      -0.367001        -9.9866
  64   1.0000      -0.365687        -9.9508
  65   1.0000      -0.360739        -9.8162
  66   1.0000      -0.357917        -9.7394
  67   1.0000      -0.356291        -9.6952
  68   1.0000      -0.347094        -9.4449
  69   1.0000      -0.342944        -9.3320
  70   1.0000      -0.342865        -9.3298
  71   1.0000      -0.340911        -9.2767
  72   1.0000      -0.340856        -9.2752
  73   1.0000      -0.340740        -9.2720
  74   1.0000      -0.335803        -9.1377
  75   1.0000      -0.335530        -9.1302
  76   1.0000      -0.333519        -9.0755
  77   1.0000      -0.329519        -8.9667
  78   1.0000      -0.327850        -8.9212
  79   1.0000      -0.327639        -8.9155
  80   1.0000      -0.325487        -8.8570
  81   1.0000      -0.325434        -8.8555
  82   1.0000      -0.324070        -8.8184
  83   1.0000      -0.323779        -8.8105
  84   1.0000      -0.320375        -8.7178
  85   1.0000      -0.314115        -8.5475
  86   1.0000      -0.306029        -8.3275
  87   1.0000      -0.305926        -8.3247
  88   1.0000      -0.305685        -8.3181
  89   1.0000      -0.296569        -8.0701
  90   1.0000      -0.296442        -8.0666
  91   1.0000      -0.296062        -8.0563
  92   1.0000      -0.286399        -7.7933
  93   1.0000      -0.280982        -7.6459
  94   1.0000      -0.280886        -7.6433
  95   1.0000      -0.278287        -7.5726
  96   1.0000      -0.278096        -7.5674
  97   1.0000      -0.277931        -7.5629
  98   1.0000      -0.277822        -7.5599
  99   1.0000      -0.276003        -7.5104
 100   1.0000      -0.275353        -7.4927
 101   1.0000      -0.269653        -7.3376
 102   1.0000      -0.268240        -7.2992
 103   1.0000      -0.263060        -7.1582
 104   1.0000      -0.262823        -7.1518
 105   1.0000      -0.262405        -7.1404
 106   1.0000      -0.261348        -7.1116
 107   1.0000      -0.260568        -7.0904
 108   1.0000      -0.260423        -7.0865
 109   1.0000      -0.260350        -7.0845
 110   1.0000      -0.257596        -7.0095
 111   1.0000      -0.257264        -7.0005
 112   1.0000      -0.257180        -6.9982
 113   1.0000      -0.254264        -6.9189
 114   1.0000      -0.252449        -6.8695
 115   1.0000      -0.252315        -6.8658
 116   1.0000      -0.246062        -6.6957
 117   1.0000      -0.245993        -6.6938
 118   1.0000      -0.245222        -6.6728
 119   1.0000      -0.237409        -6.4602
 120   1.0000      -0.234251        -6.3743
 121   1.0000      -0.233041        -6.3414
 122   1.0000      -0.226733        -6.1697
 123   1.0000      -0.217379        -5.9152
 124   1.0000      -0.217377        -5.9151
 125   1.0000      -0.213312        -5.8045
 126   1.0000      -0.196533        -5.3479
 127   0.0000      -0.165540        -4.5046
 128   0.0000      -0.165522        -4.5041
 129   0.0000      -0.159044        -4.3278
 130   0.0000      -0.155314        -4.2263
 131   0.0000      -0.106196        -2.8897

                 SPIN DOWN ORBITALS
  NO   OCC          E(Eh)            E(eV)
   0   1.0000    -215.304268     -5858.7270
   1   1.0000     -24.548108      -667.9880
   2   1.0000     -20.832444      -566.8796
   3   1.0000     -20.825921      -566.7021
   4   1.0000     -20.825896      -566.7014
   5   1.0000      -4.114649      -111.9653
   6   1.0000      -4.114630      -111.9648
   7   1.0000      -4.114576      -111.9633
   8   1.0000      -4.114559      -111.9628
   9   1.0000      -4.114551      -111.9626
  10   1.0000      -4.114535      -111.9622
  11   1.0000      -4.114478      -111.9606
  12   1.0000      -4.114465      -111.9603
  13   1.0000      -4.107044      -111.7584
  14   1.0000      -4.107032      -111.7580
  15   1.0000      -4.106972      -111.7564
  16   1.0000      -4.106967      -111.7562
  17   1.0000      -2.767501       -75.3075
  18   1.0000      -2.304283       -62.7027
  19   1.0000      -2.304157       -62.6993
  20   1.0000      -2.303685       -62.6865
  21   1.0000      -2.303666       -62.6859
  22   1.0000      -2.303554       -62.6829
  23   1.0000      -2.303538       -62.6825
  24   1.0000      -2.302538       -62.6552
  25   1.0000      -2.302526       -62.6549
  26   1.0000      -2.302338       -62.6498
  27   1.0000      -2.302218       -62.6465
  28   1.0000      -2.300808       -62.6082
  29   1.0000      -2.300768       -62.6071
  30   1.0000      -2.300676       -62.6046
  31   1.0000      -2.300645       -62.6037
  32   1.0000      -2.299762       -62.5797
  33   1.0000      -2.299275       -62.5664
  34   1.0000      -2.297615       -62.5213
  35   1.0000      -2.297568       -62.5200
  36   1.0000      -2.297029       -62.5053
  37   1.0000      -2.297011       -62.5048
  38   1.0000      -2.296795       -62.4990
  39   1.0000      -2.296790       -62.4988
  40   1.0000      -2.296520       -62.4915
  41   1.0000      -2.295844       -62.4731
  42   1.0000      -2.293246       -62.4024
  43   1.0000      -2.293066       -62.3975
  44   1.0000      -2.293021       -62.3963
  45   1.0000      -2.292968       -62.3948
  46   1.0000      -2.292528       -62.3829
  47   1.0000      -2.292394       -62.3792
  48   1.0000      -2.292370       -62.3786
  49   1.0000      -2.292331       -62.3775
  50   1.0000      -2.291132       -62.3449
  51   1.0000      -2.291108       -62.3442
  52   1.0000      -2.291069       -62.3431
  53   1.0000      -2.290951       -62.3399
  54   1.0000      -1.723237       -46.8917
  55   1.0000      -1.709786       -46.5256
  56   1.0000      -1.709737       -46.5243
  57   1.0000      -0.419430       -11.4133
  58   1.0000      -0.378746       -10.3062
  59   1.0000      -0.378665       -10.3040
  60   1.0000      -0.371537       -10.1100
  61   1.0000      -0.370567       -10.0836
  62   1.0000      -0.365705        -9.9514
  63   1.0000      -0.364137        -9.9087
  64   1.0000      -0.364053        -9.9064
  65   1.0000      -0.359335        -9.7780
  66   1.0000      -0.351276        -9.5587
  67   1.0000      -0.350833        -9.5466
  68   1.0000      -0.347246        -9.4490
  69   1.0000      -0.344363        -9.3706
  70   1.0000      -0.344278        -9.3683
  71   1.0000      -0.342571        -9.3218
  72   1.0000      -0.341253        -9.2860
  73   1.0000      -0.341076        -9.2811
  74   1.0000      -0.336921        -9.1681
  75   1.0000      -0.336649        -9.1607
  76   1.0000      -0.335408        -9.1269
  77   1.0000      -0.330627        -8.9968
  78   1.0000      -0.329051        -8.9539
  79   1.0000      -0.328630        -8.9425
  80   1.0000      -0.327246        -8.9048
  81   1.0000      -0.327204        -8.9037
  82   1.0000      -0.321704        -8.7540
  83   1.0000      -0.319477        -8.6934
  84   1.0000      -0.319182        -8.6854
  85   1.0000      -0.316045        -8.6000
  86   1.0000      -0.307682        -8.3724
  87   1.0000      -0.307439        -8.3659
  88   1.0000      -0.300172        -8.1681
  89   1.0000      -0.295926        -8.0526
  90   1.0000      -0.295805        -8.0493
  91   1.0000      -0.295439        -8.0393
  92   1.0000      -0.287757        -7.8303
  93   1.0000      -0.283393        -7.7115
  94   1.0000      -0.283300        -7.7090
  95   1.0000      -0.280926        -7.6444
  96   1.0000      -0.279678        -7.6104
  97   1.0000      -0.279347        -7.6014
  98   1.0000      -0.277167        -7.5421
  99   1.0000      -0.276551        -7.5253
 100   1.0000      -0.275816        -7.5053
 101   1.0000      -0.271517        -7.3883
 102   1.0000      -0.270713        -7.3665
 103   1.0000      -0.264904        -7.2084
 104   1.0000      -0.263512        -7.1705
 105   1.0000      -0.263267        -7.1639
 106   1.0000      -0.262600        -7.1457
 107   1.0000      -0.261654        -7.1200
 108   1.0000      -0.261597        -7.1184
 109   1.0000      -0.261430        -7.1139
 110   1.0000      -0.259055        -7.0493
 111   1.0000      -0.258164        -7.0250
 112   1.0000      -0.258081        -7.0227
 113   1.0000      -0.255440        -6.9509
 114   1.0000      -0.253440        -6.8964
 115   1.0000      -0.253309        -6.8929
 116   1.0000      -0.248585        -6.7644
 117   1.0000      -0.248515        -6.7624
 118   1.0000      -0.246200        -6.6994
 119   1.0000      -0.240649        -6.5484
 120   1.0000      -0.226926        -6.1750
 121   1.0000      -0.211014        -5.7420
 122   1.0000      -0.203970        -5.5503
 123   1.0000      -0.203886        -5.5480
 124   1.0000      -0.186208        -5.0670
 125   0.0000      -0.164848        -4.4858
 126   0.0000      -0.107726        -2.9314
 127   0.0000      -0.105773        -2.8782
 128   0.0000      -0.105630        -2.8743
 129   0.0000      -0.104692        -2.8488

MULLIKEN ATOMIC CHARGES AND SPIN POPULATIONS
--------------------------------------------
   0 Au:    0.452181    0.006147
   1 Au:    0.453173    0.006422
   2 Au:    0.397624   -0.104557
   3 Au:    0.397935   -0.104733
   4 Au:    0.399371   -0.104760
   5 Au:    0.399099   -0.104928
   6 Au:    0.397900   -0.105247
   7 Au:    0.453257    0.006067
   8 Au:    0.452645    0.007291
   9 Au:    0.397485   -0.105303
  10 Au:    0.399260   -0.104718
  11 Au:    0.399053   -0.105116
  12 Cr:   -4.998983    2.813434
Sum of atomic charges         :   -0.0000000

LOEWDIN ATOMIC CHARGES AND SPIN POPULATIONS
-------------------------------------------
   0 Au:    0.110271   -0.070856
   1 Au:    0.110363   -0.070611
   2 Au:    0.117764   -0.100962
   3 Au:    0.117686   -0.101081
   4 Au:    0.117199   -0.101201
   5 Au:    0.116811   -0.101307
   6 Au:    0.117052   -0.101288
   7 Au:    0.110344   -0.070921
   8 Au:    0.110309   -0.069988
   9 Au:    0.117192   -0.101363
  10 Au:    0.117302   -0.101245
  11 Au:    0.116820   -0.101341
  12 Cr:   -1.379114    3.092165

  Mayer bond orders larger than 0.100000
B(  0-Au,  5-Au) :   0.2261 B(  0-Au,  6-Au) :   0.2262 B(  0-Au,  9-Au) :   0.2264
B(  0-Au, 11-Au) :   0.2265 B(  0-Au, 12-Cr) :   0.4948 B(  1-Au,  2-Au) :   0.2262
B(  1-Au,  3-Au) :   0.2257 B(  1-Au,  5-Au) :   0.2263 B(  1-Au, 11-Au) :   0.2269
B(  1-Au, 12-Cr) :   0.4959 B(  2-Au,  8-Au) :   0.2263 B(  2-Au, 10-Au) :   0.1677
B(  2-Au, 11-Au) :   0.1664 B(  2-Au, 12-Cr) :   0.6867 B(  3-Au,  4-Au) :   0.1677
B(  3-Au,  5-Au) :   0.1670 B(  3-Au,  8-Au) :   0.2265 B(  3-Au, 12-Cr) :   0.6865
B(  4-Au,  6-Au) :   0.1661 B(  4-Au,  7-Au) :   0.2263 B(  4-Au,  8-Au) :   0.2265
B(  4-Au, 12-Cr) :   0.6852 B(  5-Au,  6-Au) :   0.1667 B(  5-Au, 12-Cr) :   0.6860
B(  6-Au,  7-Au) :   0.2268 B(  6-Au, 12-Cr) :   0.6862 B(  7-Au,  9-Au) :   0.2263
B(  7-Au, 10-Au) :   0.2260 B(  7-Au, 12-Cr) :   0.4956 B(  8-Au, 10-Au) :   0.2261
B(  8-Au, 12-Cr) :   0.4951 B(  9-Au, 10-Au) :   0.1661 B(  9-Au, 11-Au) :   0.1665
B(  9-Au, 12-Cr) :   0.6865 B( 10-Au, 12-Cr) :   0.6865 B( 11-Au, 12-Cr) :   0.6847

FINAL SINGLE POINT ENERGY     -2674.599161574081

DIPOLE MOMENT
-------------
                                X             Y             Z
Electronic contribution:      0.03255      -0.10340      -0.01481
Nuclear contribution   :     -0.03240       0.10304       0.01462
                        -----------------------------------------
Total Dipole Moment    :      0.00015      -0.00036      -0.00020
                        -----------------------------------------
Magnitude (a.u.)       :      0.00044
Magnitude (Debye)      :      0.00111

Rotational constants in cm-1:     0.001440     0.001439     0.001210
Rotational constants in MHz :    43.175280    43.133640    36.285925

                             ****ORCA TERMINATED NORMALLY****
TOTAL RUN TIME: 0 days 0 hours 51 minutes 21 seconds 862 msec
