                         Program Version 5.0.3 -  RELEASE  -
|  1> %pal nprocs 1 end
|  2>
|  3> !PBE def2-TZVP OPT UNO
|  4> !SLOWCONV
|  5>
|  6> *xyzfile 0 3 0.xyz                           ****END OF INPUT****
 Total Charge           Charge          ....    0
 Multiplicity           Mult            ....    3
 Number of Electrons    NEL             ....  292
FINAL SINGLE POINT ENERGY     -3165.060911839258
FINAL SINGLE POINT ENERGY     -3165.063632049125
FINAL SINGLE POINT ENERGY     -3165.064917618603
FINAL SINGLE POINT ENERGY     -3165.065541393763
FINAL SINGLE POINT ENERGY     -3165.065934033440
FINAL SINGLE POINT ENERGY     -3165.066257910783
FINAL SINGLE POINT ENERGY     -3165.066591541346
FINAL SINGLE POINT ENERGY     -3165.066637719872
FINAL SINGLE POINT ENERGY     -3165.066663817930
FINAL SINGLE POINT ENERGY     -3165.066681082847
FINAL SINGLE POINT ENERGY     -3165.066685758370
                    ***********************HURRAY********************

CARTESIAN COORDINATES (ANGSTROEM)
---------------------------------
  Au     9.111546    7.616935   10.022949
  Au     7.046061    5.537509    9.757087
  Au     5.705755    9.310820    7.430289
  Au     3.756002    7.841357    6.114502
  Au     5.685929    9.486720    4.662723
  Au     8.180196    9.877759    8.533173
  Au     4.980818    6.431928    8.142377
  Au     6.326386    8.288939    9.929989
  Au     7.111678    4.794786    7.005406
  Au     8.221004    9.193384    5.702575
  Au    10.210779    8.237784    7.375035
  Au     8.967239    6.382546    5.610272
  Au     9.576685    5.519120    8.281182
  Au     6.251926    6.871497    5.394792
  Fe     7.632341    7.342161    7.758810

 Multiplicity           Mult            ....    3
 Number of Electrons    NEL             ....  292
 Basis Dimension        Dim             ....  605

ORBITAL ENERGIES
----------------
                 SPIN UP ORBITALS
  NO   OCC          E(Eh)            E(eV)
   0   1.0000    -254.750945     -6932.1256
   1   1.0000     -29.586845      -805.0990
   2   1.0000     -25.527429      -694.6366
   3   1.0000     -25.525649      -694.5882
   4   1.0000     -25.514648      -694.2889
   5   1.0000      -4.032553      -109.7314
   6   1.0000      -4.032273      -109.7237
   7   1.0000      -4.030903      -109.6864
   8   1.0000      -4.030838      -109.6847
   9   1.0000      -4.030699      -109.6809
  10   1.0000      -4.030635      -109.6792
  11   1.0000      -4.025643      -109.5433
  12   1.0000      -4.025628      -109.5429
  13   1.0000      -4.025429      -109.5375
  14   1.0000      -4.025214      -109.5316
  15   1.0000      -4.024558      -109.5138
  16   1.0000      -4.024487      -109.5119
  17   1.0000      -4.018608      -109.3519
  18   1.0000      -4.018544      -109.3502
  19   1.0000      -3.363677       -91.5303
  20   1.0000      -2.250558       -61.2408
  21   1.0000      -2.250330       -61.2346
  22   1.0000      -2.246616       -61.1335
  23   1.0000      -2.246515       -61.1308
  24   1.0000      -2.246187       -61.1219
  25   1.0000      -2.246055       -61.1183
  26   1.0000      -2.244675       -61.0807
  27   1.0000      -2.244417       -61.0737
  28   1.0000      -2.243732       -61.0551
  29   1.0000      -2.243542       -61.0499
  30   1.0000      -2.243111       -61.0382
  31   1.0000      -2.242979       -61.0346
  32   1.0000      -2.242935       -61.0334
  33   1.0000      -2.242781       -61.0292
  34   1.0000      -2.242657       -61.0258
  35   1.0000      -2.242314       -61.0165
  36   1.0000      -2.242121       -61.0112
  37   1.0000      -2.241501       -60.9944
  38   1.0000      -2.241432       -60.9925
  39   1.0000      -2.241180       -60.9856
  40   1.0000      -2.240616       -60.9703
  41   1.0000      -2.239197       -60.9316
  42   1.0000      -2.239036       -60.9273
  43   1.0000      -2.238992       -60.9261
  44   1.0000      -2.238528       -60.9134
  45   1.0000      -2.238155       -60.9033
  46   1.0000      -2.237396       -60.8826
  47   1.0000      -2.237206       -60.8775
  48   1.0000      -2.237108       -60.8748
  49   1.0000      -2.236724       -60.8644
  50   1.0000      -2.236633       -60.8619
  51   1.0000      -2.236560       -60.8599
  52   1.0000      -2.236182       -60.8496
  53   1.0000      -2.235981       -60.8441
  54   1.0000      -2.234529       -60.8046
  55   1.0000      -2.234457       -60.8027
  56   1.0000      -2.232968       -60.7622
  57   1.0000      -2.232653       -60.7536
  58   1.0000      -2.231312       -60.7171
  59   1.0000      -2.229924       -60.6793
  60   1.0000      -2.229900       -60.6787
  61   1.0000      -2.229829       -60.6767
  62   1.0000      -2.187862       -59.5348
  63   1.0000      -2.183915       -59.4273
  64   1.0000      -2.161106       -58.8067
  65   1.0000      -0.442160       -12.0318
  66   1.0000      -0.396058       -10.7773
  67   1.0000      -0.390892       -10.6367
  68   1.0000      -0.385636       -10.4937
  69   1.0000      -0.381944       -10.3932
  70   1.0000      -0.374996       -10.2042
  71   1.0000      -0.372277       -10.1302
  72   1.0000      -0.371570       -10.1109
  73   1.0000      -0.370133       -10.0718
  74   1.0000      -0.361142        -9.8272
  75   1.0000      -0.361067        -9.8251
  76   1.0000      -0.356192        -9.6925
  77   1.0000      -0.349306        -9.5051
  78   1.0000      -0.349231        -9.5031
  79   1.0000      -0.347733        -9.4623
  80   1.0000      -0.346890        -9.4394
  81   1.0000      -0.344762        -9.3814
  82   1.0000      -0.343241        -9.3401
  83   1.0000      -0.340115        -9.2550
  84   1.0000      -0.338165        -9.2019
  85   1.0000      -0.336806        -9.1650
  86   1.0000      -0.335283        -9.1235
  87   1.0000      -0.334289        -9.0965
  88   1.0000      -0.332581        -9.0500
  89   1.0000      -0.331889        -9.0312
  90   1.0000      -0.328670        -8.9436
  91   1.0000      -0.321194        -8.7401
  92   1.0000      -0.318596        -8.6695
  93   1.0000      -0.313974        -8.5437
  94   1.0000      -0.313803        -8.5390
  95   1.0000      -0.313499        -8.5307
  96   1.0000      -0.312668        -8.5081
  97   1.0000      -0.311033        -8.4636
  98   1.0000      -0.306423        -8.3382
  99   1.0000      -0.298243        -8.1156
 100   1.0000      -0.296507        -8.0684
 101   1.0000      -0.295748        -8.0477
 102   1.0000      -0.295357        -8.0371
 103   1.0000      -0.292670        -7.9640
 104   1.0000      -0.290840        -7.9142
 105   1.0000      -0.289871        -7.8878
 106   1.0000      -0.287372        -7.8198
 107   1.0000      -0.280383        -7.6296
 108   1.0000      -0.279208        -7.5976
 109   1.0000      -0.277339        -7.5468
 110   1.0000      -0.277080        -7.5397
 111   1.0000      -0.276327        -7.5192
 112   1.0000      -0.275221        -7.4891
 113   1.0000      -0.275008        -7.4833
 114   1.0000      -0.274029        -7.4567
 115   1.0000      -0.270862        -7.3705
 116   1.0000      -0.269246        -7.3266
 117   1.0000      -0.268419        -7.3040
 118   1.0000      -0.267805        -7.2873
 119   1.0000      -0.266202        -7.2437
 120   1.0000      -0.264647        -7.2014
 121   1.0000      -0.264133        -7.1874
 122   1.0000      -0.262311        -7.1378
 123   1.0000      -0.261322        -7.1109
 124   1.0000      -0.260572        -7.0905
 125   1.0000      -0.258005        -7.0207
 126   1.0000      -0.254776        -6.9328
 127   1.0000      -0.253936        -6.9099
 128   1.0000      -0.253383        -6.8949
 129   1.0000      -0.253110        -6.8875
 130   1.0000      -0.251852        -6.8532
 131   1.0000      -0.250975        -6.8294
 132   1.0000      -0.249712        -6.7950
 133   1.0000      -0.248514        -6.7624
 134   1.0000      -0.247819        -6.7435
 135   1.0000      -0.247757        -6.7418
 136   1.0000      -0.246818        -6.7163
 137   1.0000      -0.246681        -6.7125
 138   1.0000      -0.244916        -6.6645
 139   1.0000      -0.242794        -6.6068
 140   1.0000      -0.241626        -6.5750
 141   1.0000      -0.234632        -6.3847
 142   1.0000      -0.234368        -6.3775
 143   1.0000      -0.232978        -6.3397
 144   1.0000      -0.211265        -5.7488
 145   1.0000      -0.204727        -5.5709
 146   1.0000      -0.190750        -5.1906
 147   0.0000      -0.183844        -5.0027
 148   0.0000      -0.180648        -4.9157
 149   0.0000      -0.145440        -3.9576
 150   0.0000      -0.131432        -3.5764
 151   0.0000      -0.124608        -3.3908

                 SPIN DOWN ORBITALS
  NO   OCC          E(Eh)            E(eV)
   0   1.0000    -254.750312     -6932.1084
   1   1.0000     -29.531345      -803.5888
   2   1.0000     -25.483027      -693.4284
   3   1.0000     -25.482701      -693.4196
   4   1.0000     -25.476295      -693.2452
   5   1.0000      -4.033104      -109.7463
   6   1.0000      -4.032821      -109.7386
   7   1.0000      -4.031086      -109.6914
   8   1.0000      -4.031018      -109.6896
   9   1.0000      -4.030881      -109.6858
  10   1.0000      -4.030812      -109.6840
  11   1.0000      -4.025979      -109.5525
  12   1.0000      -4.025755      -109.5464
  13   1.0000      -4.025604      -109.5423
  14   1.0000      -4.025593      -109.5419
  15   1.0000      -4.024649      -109.5163
  16   1.0000      -4.024581      -109.5144
  17   1.0000      -4.019608      -109.3791
  18   1.0000      -4.019545      -109.3774
  19   1.0000      -3.238183       -88.1154
  20   1.0000      -2.251146       -61.2568
  21   1.0000      -2.250881       -61.2496
  22   1.0000      -2.246742       -61.1370
  23   1.0000      -2.246633       -61.1340
  24   1.0000      -2.246428       -61.1284
  25   1.0000      -2.246266       -61.1240
  26   1.0000      -2.244808       -61.0843
  27   1.0000      -2.244596       -61.0786
  28   1.0000      -2.243821       -61.0575
  29   1.0000      -2.243759       -61.0558
  30   1.0000      -2.243478       -61.0481
  31   1.0000      -2.243359       -61.0449
  32   1.0000      -2.243202       -61.0406
  33   1.0000      -2.243186       -61.0402
  34   1.0000      -2.243085       -61.0374
  35   1.0000      -2.242545       -61.0228
  36   1.0000      -2.242448       -61.0201
  37   1.0000      -2.241760       -61.0014
  38   1.0000      -2.241745       -61.0010
  39   1.0000      -2.241126       -60.9841
  40   1.0000      -2.240711       -60.9728
  41   1.0000      -2.239143       -60.9302
  42   1.0000      -2.238938       -60.9246
  43   1.0000      -2.238927       -60.9243
  44   1.0000      -2.238578       -60.9148
  45   1.0000      -2.238390       -60.9097
  46   1.0000      -2.238114       -60.9022
  47   1.0000      -2.237746       -60.8922
  48   1.0000      -2.237335       -60.8810
  49   1.0000      -2.237000       -60.8719
  50   1.0000      -2.236941       -60.8703
  51   1.0000      -2.236405       -60.8557
  52   1.0000      -2.236307       -60.8530
  53   1.0000      -2.236224       -60.8508
  54   1.0000      -2.235214       -60.8233
  55   1.0000      -2.235141       -60.8213
  56   1.0000      -2.234230       -60.7965
  57   1.0000      -2.233902       -60.7876
  58   1.0000      -2.231822       -60.7310
  59   1.0000      -2.231316       -60.7172
  60   1.0000      -2.231222       -60.7146
  61   1.0000      -2.230436       -60.6932
  62   1.0000      -2.059436       -56.0401
  63   1.0000      -2.057143       -55.9777
  64   1.0000      -2.047777       -55.7228
  65   1.0000      -0.439034       -11.9467
  66   1.0000      -0.396659       -10.7937
  67   1.0000      -0.391894       -10.6640
  68   1.0000      -0.385288       -10.4842
  69   1.0000      -0.375507       -10.2181
  70   1.0000      -0.371019       -10.0959
  71   1.0000      -0.369255       -10.0479
  72   1.0000      -0.365132        -9.9357
  73   1.0000      -0.363912        -9.9025
  74   1.0000      -0.360567        -9.8115
  75   1.0000      -0.358689        -9.7604
  76   1.0000      -0.355839        -9.6829
  77   1.0000      -0.350378        -9.5343
  78   1.0000      -0.349901        -9.5213
  79   1.0000      -0.348648        -9.4872
  80   1.0000      -0.347607        -9.4589
  81   1.0000      -0.345305        -9.3962
  82   1.0000      -0.342954        -9.3323
  83   1.0000      -0.341004        -9.2792
  84   1.0000      -0.337858        -9.1936
  85   1.0000      -0.337598        -9.1865
  86   1.0000      -0.336907        -9.1677
  87   1.0000      -0.335444        -9.1279
  88   1.0000      -0.332351        -9.0437
  89   1.0000      -0.331699        -9.0260
  90   1.0000      -0.329275        -8.9600
  91   1.0000      -0.321750        -8.7553
  92   1.0000      -0.317313        -8.6345
  93   1.0000      -0.314923        -8.5695
  94   1.0000      -0.314174        -8.5491
  95   1.0000      -0.312104        -8.4928
  96   1.0000      -0.311936        -8.4882
  97   1.0000      -0.306782        -8.3480
  98   1.0000      -0.305973        -8.3260
  99   1.0000      -0.297467        -8.0945
 100   1.0000      -0.296591        -8.0707
 101   1.0000      -0.290632        -7.9085
 102   1.0000      -0.289238        -7.8706
 103   1.0000      -0.287702        -7.8288
 104   1.0000      -0.286499        -7.7960
 105   1.0000      -0.284633        -7.7453
 106   1.0000      -0.282682        -7.6922
 107   1.0000      -0.281335        -7.6555
 108   1.0000      -0.277752        -7.5580
 109   1.0000      -0.277170        -7.5422
 110   1.0000      -0.276989        -7.5373
 111   1.0000      -0.276766        -7.5312
 112   1.0000      -0.276098        -7.5130
 113   1.0000      -0.274639        -7.4733
 114   1.0000      -0.273732        -7.4486
 115   1.0000      -0.271263        -7.3815
 116   1.0000      -0.270265        -7.3543
 117   1.0000      -0.268838        -7.3155
 118   1.0000      -0.268696        -7.3116
 119   1.0000      -0.265897        -7.2354
 120   1.0000      -0.265124        -7.2144
 121   1.0000      -0.264067        -7.1856
 122   1.0000      -0.262661        -7.1474
 123   1.0000      -0.262395        -7.1401
 124   1.0000      -0.261450        -7.1144
 125   1.0000      -0.259196        -7.0531
 126   1.0000      -0.254702        -6.9308
 127   1.0000      -0.254334        -6.9208
 128   1.0000      -0.253836        -6.9072
 129   1.0000      -0.252100        -6.8600
 130   1.0000      -0.251831        -6.8527
 131   1.0000      -0.250654        -6.8206
 132   1.0000      -0.248959        -6.7745
 133   1.0000      -0.248448        -6.7606
 134   1.0000      -0.246576        -6.7097
 135   1.0000      -0.244238        -6.6461
 136   1.0000      -0.243786        -6.6338
 137   1.0000      -0.236970        -6.4483
 138   1.0000      -0.234379        -6.3778
 139   1.0000      -0.222846        -6.0639
 140   1.0000      -0.211134        -5.7453
 141   1.0000      -0.205482        -5.5915
 142   1.0000      -0.200083        -5.4445
 143   1.0000      -0.199193        -5.4203
 144   1.0000      -0.173105        -4.7104
 145   0.0000      -0.155592        -4.2339
 146   0.0000      -0.154255        -4.1975
 147   0.0000      -0.152336        -4.1453
 148   0.0000      -0.145355        -3.9553
 149   0.0000      -0.141738        -3.8569

MULLIKEN ATOMIC CHARGES AND SPIN POPULATIONS
--------------------------------------------
   0 Au:    0.277722   -0.124844
   1 Au:    0.287873    0.052179
   2 Au:   -0.192589   -0.131464
   3 Au:    0.396931   -0.065987
   4 Au:    0.396839   -0.065454
   5 Au:    0.373646   -0.101048
   6 Au:   -0.041126    0.068710
   7 Au:    0.376022   -0.104728
   8 Au:    0.373291   -0.101266
   9 Au:   -0.042145    0.068829
  10 Au:    0.287849    0.052136
  11 Au:    0.375737   -0.104866
  12 Au:    0.279912   -0.129924
  13 Au:   -0.194135   -0.123895
  14 Fe:   -2.955828    2.811621
Sum of atomic charges         :   -0.0000000

LOEWDIN ATOMIC CHARGES AND SPIN POPULATIONS
-------------------------------------------
   0 Au:    0.068825   -0.103051
   1 Au:    0.068441   -0.017246
   2 Au:   -0.051216   -0.091208
   3 Au:    0.084575   -0.073666
   4 Au:    0.084550   -0.073373
   5 Au:    0.098369   -0.088311
   6 Au:    0.005269   -0.003773
   7 Au:    0.098157   -0.088685
   8 Au:    0.098292   -0.087978
   9 Au:    0.005064   -0.003708
  10 Au:    0.068299   -0.017204
  11 Au:    0.098151   -0.088343
  12 Au:    0.069694   -0.105780
  13 Au:   -0.052157   -0.087781
  14 Fe:   -0.744313    2.930108

  Mayer bond orders larger than 0.100000
B(  0-Au,  1-Au) :   0.1367 B(  0-Au,  5-Au) :   0.1739 B(  0-Au,  7-Au) :   0.1713
B(  0-Au, 10-Au) :   0.1401 B(  0-Au, 12-Au) :   0.2702 B(  0-Au, 14-Fe) :   0.4511
B(  1-Au,  6-Au) :   0.3061 B(  1-Au,  7-Au) :   0.1488 B(  1-Au,  8-Au) :   0.1476
B(  1-Au, 12-Au) :   0.1427 B(  1-Au, 14-Fe) :   0.4573 B(  2-Au,  3-Au) :   0.3066
B(  2-Au,  4-Au) :   0.3061 B(  2-Au,  5-Au) :   0.2698 B(  2-Au,  6-Au) :   0.1451
B(  2-Au,  7-Au) :   0.2659 B(  2-Au,  9-Au) :   0.1449 B(  2-Au, 13-Au) :   0.2106
B(  2-Au, 14-Fe) :   0.4320 B(  3-Au,  4-Au) :   0.1715 B(  3-Au,  6-Au) :   0.3530
B(  3-Au, 13-Au) :   0.3059 B(  4-Au,  9-Au) :   0.3536 B(  4-Au, 13-Au) :   0.3053
B(  5-Au,  7-Au) :   0.1816 B(  5-Au,  9-Au) :   0.1104 B(  5-Au, 10-Au) :   0.1449
B(  5-Au, 14-Fe) :   0.4859 B(  6-Au,  7-Au) :   0.1136 B(  6-Au,  8-Au) :   0.1086
B(  6-Au, 13-Au) :   0.1427 B(  6-Au, 14-Fe) :   0.5041 B(  7-Au, 14-Fe) :   0.4857
B(  8-Au, 11-Au) :   0.1817 B(  8-Au, 12-Au) :   0.1696 B(  8-Au, 13-Au) :   0.2729
B(  8-Au, 14-Fe) :   0.4866 B(  9-Au, 10-Au) :   0.3064 B(  9-Au, 11-Au) :   0.1126
B(  9-Au, 13-Au) :   0.1428 B(  9-Au, 14-Fe) :   0.5043 B( 10-Au, 11-Au) :   0.1508
B( 10-Au, 12-Au) :   0.1404 B( 10-Au, 14-Fe) :   0.4568 B( 11-Au, 12-Au) :   0.1670
B( 11-Au, 13-Au) :   0.2691 B( 11-Au, 14-Fe) :   0.4860 B( 12-Au, 14-Fe) :   0.4509
B( 13-Au, 14-Fe) :   0.4317

FINAL SINGLE POINT ENERGY     -3165.066686947857

DIPOLE MOMENT
-------------
                                X             Y             Z
Electronic contribution:    -15.50904       7.05181     -12.63481
Nuclear contribution   :     15.60088      -7.09262      12.71077
                        -----------------------------------------
Total Dipole Moment    :      0.09184      -0.04081       0.07596
                        -----------------------------------------
Magnitude (a.u.)       :      0.12598
Magnitude (Debye)      :      0.32021

Rotational constants in cm-1:     0.001295     0.000988     0.000931
Rotational constants in MHz :    38.810907    29.619749    27.909082

                             ****ORCA TERMINATED NORMALLY****
TOTAL RUN TIME: 0 days 4 hours 48 minutes 25 seconds 822 msec
