                         Program Version 5.0.3 -  RELEASE  -
|  1> !CASSCF def2-TZVP def2-TZVP/C
|  2> !MOREAD RIJCOSX
|  3> %maxcore 6000
|  4> %moinp "pbe.qro"
|  5> %pal nprocs 16 end
|  6>
|  7> %casscf
|  8>  mult 6,4
|  9>  bweight 1,1
| 10>  nroots 1,24
| 11>  nel 5
| 12>  norb 5
| 13> end
| 14>
| 15>
| 16> *xyzfile 0 6 pbe.xyz
| 17>
| 18>
| 19>                          ****END OF INPUT****

CARTESIAN COORDINATES (ANGSTROEM)
---------------------------------
  Au     9.208914    7.489046    5.776198
  Au    10.018751    9.829512    7.139756
  Au     7.616973    5.134838    5.267503
  Au     7.338756    9.677703    6.097504
  Au     6.746035    7.606411    4.334039
  Au     4.939910    5.778766    5.676069
  Au     4.560028    8.531258    5.787486
  Au     6.251479    4.793688    7.927572
  Au     5.245476    9.677834    8.151132
  Au     4.352522    6.968017    8.206132
  Au     7.875193   10.180218    8.878538
  Au     8.022302    5.612140   10.045929
  Au     5.279676    5.610560   10.507851
  Au     9.121718    5.238303    7.524896
  Au     9.210350    7.728559    8.739603
  Au     6.555077    7.991207    9.918135
  Mn     6.863187    7.278243    7.168352

 Total Charge           Charge          ....    0
 Multiplicity           Mult            ....    6
 Number of Electrons    NEL             ....  329
 Basis Dimension        Dim             ....  685

ORBITAL ENERGIES
----------------

  NO   OCC          E(Eh)            E(eV)
   0   2.0000    -240.564405     -6546.0903
   1   2.0000     -29.137353      -792.8677
   2   2.0000     -24.842635      -676.0025
   3   2.0000     -24.842513      -675.9991
   4   2.0000     -24.842335      -675.9943
   5   2.0000      -4.720610      -128.4543
   6   2.0000      -4.720454      -128.4501
   7   2.0000      -4.720224      -128.4438
   8   2.0000      -4.720185      -128.4428
   9   2.0000      -4.719566      -128.4259
  10   2.0000      -4.719462      -128.4231
  11   2.0000      -4.714960      -128.3006
  12   2.0000      -4.714791      -128.2960
  13   2.0000      -4.714153      -128.2786
  14   2.0000      -4.714090      -128.2769
  15   2.0000      -4.711636      -128.2101
  16   2.0000      -4.711571      -128.2084
  17   2.0000      -4.711479      -128.2059
  18   2.0000      -4.711336      -128.2020
  19   2.0000      -4.709399      -128.1493
  20   2.0000      -4.709311      -128.1469
  21   2.0000      -3.843426      -104.5849
  22   2.0000      -2.759113       -75.0793
  23   2.0000      -2.759003       -75.0763
  24   2.0000      -2.758785       -75.0704
  25   2.0000      -2.758729       -75.0688
  26   2.0000      -2.758116       -75.0521
  27   2.0000      -2.758046       -75.0503
  28   2.0000      -2.757150       -75.0259
  29   2.0000      -2.757058       -75.0234
  30   2.0000      -2.756168       -74.9991
  31   2.0000      -2.756093       -74.9971
  32   2.0000      -2.756057       -74.9961
  33   2.0000      -2.755967       -74.9937
  34   2.0000      -2.755693       -74.9862
  35   2.0000      -2.754832       -74.9628
  36   2.0000      -2.754597       -74.9564
  37   2.0000      -2.753930       -74.9382
  38   2.0000      -2.753552       -74.9280
  39   2.0000      -2.753157       -74.9172
  40   2.0000      -2.753113       -74.9160
  41   2.0000      -2.752582       -74.9016
  42   2.0000      -2.752248       -74.8925
  43   2.0000      -2.751659       -74.8765
  44   2.0000      -2.750782       -74.8526
  45   2.0000      -2.750716       -74.8508
  46   2.0000      -2.750447       -74.8435
  47   2.0000      -2.749810       -74.8261
  48   2.0000      -2.749076       -74.8062
  49   2.0000      -2.748957       -74.8029
  50   2.0000      -2.748886       -74.8010
  51   2.0000      -2.748072       -74.7788
  52   2.0000      -2.748020       -74.7774
  53   2.0000      -2.747470       -74.7625
  54   2.0000      -2.747370       -74.7597
  55   2.0000      -2.747166       -74.7542
  56   2.0000      -2.746627       -74.7395
  57   2.0000      -2.746393       -74.7331
  58   2.0000      -2.746276       -74.7300
  59   2.0000      -2.746099       -74.7251
  60   2.0000      -2.745966       -74.7215
  61   2.0000      -2.745847       -74.7183
  62   2.0000      -2.744848       -74.6911
  63   2.0000      -2.744593       -74.6842
  64   2.0000      -2.744386       -74.6785
  65   2.0000      -2.744069       -74.6699
  66   2.0000      -2.743295       -74.6488
  67   2.0000      -2.743140       -74.6446
  68   2.0000      -2.742701       -74.6327
  69   2.0000      -2.742494       -74.6271
  70   2.0000      -2.513157       -68.3865
  71   2.0000      -2.512064       -68.3567
  72   2.0000      -2.511789       -68.3493
  73   2.0000      -0.585293       -15.9266
  74   2.0000      -0.562287       -15.3006
  75   2.0000      -0.558726       -15.2037
  76   2.0000      -0.558554       -15.1990
  77   2.0000      -0.553151       -15.0520
  78   2.0000      -0.551765       -15.0143
  79   2.0000      -0.551188       -14.9986
  80   2.0000      -0.548942       -14.9375
  81   2.0000      -0.548575       -14.9275
  82   2.0000      -0.548161       -14.9162
  83   2.0000      -0.546777       -14.8786
  84   2.0000      -0.545794       -14.8518
  85   2.0000      -0.545302       -14.8384
  86   2.0000      -0.543885       -14.7999
  87   2.0000      -0.543726       -14.7955
  88   2.0000      -0.542739       -14.7687
  89   2.0000      -0.539973       -14.6934
  90   2.0000      -0.538201       -14.6452
  91   2.0000      -0.537883       -14.6365
  92   2.0000      -0.535959       -14.5842
  93   2.0000      -0.532610       -14.4931
  94   2.0000      -0.530757       -14.4426
  95   2.0000      -0.528960       -14.3937
  96   2.0000      -0.526883       -14.3372
  97   2.0000      -0.525277       -14.2935
  98   2.0000      -0.523483       -14.2447
  99   2.0000      -0.519719       -14.1423
 100   2.0000      -0.515723       -14.0335
 101   2.0000      -0.513136       -13.9632
 102   2.0000      -0.509893       -13.8749
 103   2.0000      -0.507809       -13.8182
 104   2.0000      -0.506863       -13.7925
 105   2.0000      -0.500597       -13.6219
 106   2.0000      -0.497795       -13.5457
 107   2.0000      -0.497454       -13.5364
 108   2.0000      -0.493338       -13.4244
 109   2.0000      -0.492120       -13.3913
 110   2.0000      -0.490780       -13.3548
 111   2.0000      -0.486940       -13.2503
 112   2.0000      -0.481059       -13.0903
 113   2.0000      -0.477525       -12.9941
 114   2.0000      -0.473893       -12.8953
 115   2.0000      -0.472361       -12.8536
 116   2.0000      -0.470336       -12.7985
 117   2.0000      -0.468774       -12.7560
 118   2.0000      -0.465616       -12.6701
 119   2.0000      -0.463111       -12.6019
 120   2.0000      -0.461191       -12.5496
 121   2.0000      -0.460452       -12.5295
 122   2.0000      -0.460421       -12.5287
 123   2.0000      -0.456039       -12.4094
 124   2.0000      -0.454751       -12.3744
 125   2.0000      -0.454535       -12.3685
 126   2.0000      -0.451553       -12.2874
 127   2.0000      -0.451130       -12.2759
 128   2.0000      -0.448785       -12.2121
 129   2.0000      -0.447937       -12.1890
 130   2.0000      -0.446583       -12.1522
 131   2.0000      -0.445782       -12.1304
 132   2.0000      -0.444408       -12.0930
 133   2.0000      -0.442748       -12.0478
 134   2.0000      -0.440080       -11.9752
 135   2.0000      -0.439849       -11.9689
 136   2.0000      -0.437631       -11.9086
 137   2.0000      -0.433427       -11.7941
 138   2.0000      -0.432712       -11.7747
 139   2.0000      -0.431979       -11.7548
 140   2.0000      -0.430412       -11.7121
 141   2.0000      -0.427068       -11.6211
 142   2.0000      -0.425937       -11.5903
 143   2.0000      -0.422527       -11.4975
 144   2.0000      -0.421475       -11.4689
 145   2.0000      -0.421254       -11.4629
 146   2.0000      -0.419679       -11.4200
 147   2.0000      -0.416179       -11.3248
 148   2.0000      -0.414889       -11.2897
 149   2.0000      -0.406098       -11.0505
 150   2.0000      -0.402178       -10.9438
 151   2.0000      -0.401584       -10.9277
 152   2.0000      -0.401386       -10.9223
 153   2.0000      -0.393100       -10.6968
 154   2.0000      -0.380938       -10.3659
 155   2.0000      -0.375527       -10.2186
 156   2.0000      -0.365638        -9.9495
 157   2.0000      -0.260256        -7.0819
 158   2.0000      -0.257284        -7.0010
 159   2.0000      -0.241736        -6.5780
 160   2.0000      -0.235484        -6.4078
 161   2.0000      -0.223183        -6.0731
 162   1.0000      -0.160706        -4.3730
 163   1.0000      -0.161693        -4.3999
 164   1.0000      -0.158965        -4.3257
 165   1.0000      -0.155712        -4.2371
 166   1.0000      -0.159981        -4.3533
 167   0.0000      -0.045055        -1.2260
 168   0.0000      -0.010450        -0.2844
 169   0.0000      -0.005110        -0.1391
 170   0.0000       0.001977         0.0538
 171   0.0000       0.006150         0.1674

MULLIKEN ATOMIC CHARGES AND SPIN DENSITIES
------------------------------------------
   0 Au:   -0.021360    0.010266
   1 Au:    0.487077    0.004379
   2 Au:    0.394584    0.005332
   3 Au:   -0.108868    0.012256
   4 Au:    0.260886    0.006768
   5 Au:    0.262370    0.006715
   6 Au:    0.394289    0.005337
   7 Au:   -0.114916    0.012317
   8 Au:    0.233886    0.005454
   9 Au:   -0.019343    0.010277
  10 Au:    0.353073    0.004579
  11 Au:    0.353243    0.004587
  12 Au:    0.486121    0.004386
  13 Au:    0.233651    0.005422
  14 Au:   -0.391458    0.009107
  15 Au:   -0.385034    0.009140
  16 Mn:   -2.418200    3.883676
Sum of atomic charges       :    0.0000000

LOEWDIN ATOMIC CHARGES AND SPIN DENSITIES
-----------------------------------------
   0 Au:   -0.018694    0.012485
   1 Au:    0.157956    0.005339
   2 Au:    0.048941    0.007729
   3 Au:   -0.041752    0.015320
   4 Au:    0.038560    0.009170
   5 Au:    0.039087    0.009119
   6 Au:    0.049281    0.007722
   7 Au:   -0.042726    0.015386
   8 Au:    0.033686    0.007643
   9 Au:   -0.018056    0.012502
  10 Au:    0.023207    0.006569
  11 Au:    0.023297    0.006570
  12 Au:    0.157681    0.005344
  13 Au:    0.034081    0.007599
  14 Au:   -0.089115    0.011791
  15 Au:   -0.087765    0.011817
  16 Mn:   -0.307669    3.847895

  Mayer bond orders larger than 0.100000
B(  0-Au,  1-Au) :   0.2061 B(  0-Au,  2-Au) :   0.1811 B(  0-Au,  3-Au) :   0.1232
B(  0-Au,  4-Au) :   0.1377 B(  0-Au, 13-Au) :   0.1574 B(  0-Au, 14-Au) :   0.2101
B(  0-Au, 16-Mn) :   0.4428 B(  1-Au,  3-Au) :   0.1902 B(  1-Au, 10-Au) :   0.1441
B(  1-Au, 14-Au) :   0.3073 B(  2-Au,  4-Au) :   0.1741 B(  2-Au,  5-Au) :   0.1516
B(  2-Au,  7-Au) :   0.1448 B(  2-Au, 13-Au) :   0.1669 B(  2-Au, 16-Mn) :   0.3168
B(  3-Au,  4-Au) :   0.1722 B(  3-Au,  6-Au) :   0.1413 B(  3-Au,  8-Au) :   0.1638
B(  3-Au, 10-Au) :   0.2242 B(  3-Au, 14-Au) :   0.1623 B(  3-Au, 16-Mn) :   0.4089
B(  4-Au,  5-Au) :   0.1430 B(  4-Au,  6-Au) :   0.1513 B(  4-Au, 16-Mn) :   0.3789
B(  5-Au,  6-Au) :   0.1750 B(  5-Au,  7-Au) :   0.1717 B(  5-Au,  9-Au) :   0.1373
B(  5-Au, 16-Mn) :   0.3772 B(  6-Au,  8-Au) :   0.1670 B(  6-Au,  9-Au) :   0.1817
B(  6-Au, 16-Mn) :   0.3166 B(  7-Au,  9-Au) :   0.1231 B(  7-Au, 11-Au) :   0.2236
B(  7-Au, 12-Au) :   0.1933 B(  7-Au, 13-Au) :   0.1641 B(  7-Au, 15-Au) :   0.1631
B(  7-Au, 16-Mn) :   0.4093 B(  8-Au,  9-Au) :   0.1571 B(  8-Au, 10-Au) :   0.1600
B(  8-Au, 15-Au) :   0.2198 B(  8-Au, 16-Mn) :   0.3611 B(  9-Au, 12-Au) :   0.2062
B(  9-Au, 15-Au) :   0.2085 B(  9-Au, 16-Mn) :   0.4429 B( 10-Au, 14-Au) :   0.2164
B( 10-Au, 15-Au) :   0.2719 B( 10-Au, 16-Mn) :   0.1658 B( 11-Au, 12-Au) :   0.1445
B( 11-Au, 13-Au) :   0.1601 B( 11-Au, 14-Au) :   0.2741 B( 11-Au, 15-Au) :   0.2143
B( 11-Au, 16-Mn) :   0.1648 B( 12-Au, 15-Au) :   0.3045 B( 13-Au, 14-Au) :   0.2205
B( 13-Au, 16-Mn) :   0.3590 B( 14-Au, 15-Au) :   0.1952 B( 14-Au, 16-Mn) :   0.3759
B( 15-Au, 16-Mn) :   0.3785

FINAL SINGLE POINT ENERGY     -3306.821343533452

DIPOLE MOMENT
-------------
                                X             Y             Z
Electronic contribution:      5.82785       3.21479      12.16728
Nuclear contribution   :     -5.79079      -3.19290     -12.08557
                        -----------------------------------------
Total Dipole Moment    :      0.03707       0.02189       0.08170
                        -----------------------------------------
Magnitude (a.u.)       :      0.09235
Magnitude (Debye)      :      0.23474

Rotational constants in cm-1:     0.000898     0.000834     0.000783
Rotational constants in MHz :    26.919457    25.009302    23.465459

                             ****ORCA TERMINATED NORMALLY****
TOTAL RUN TIME: 0 days 0 hours 21 minutes 23 seconds 474 msec
