                         Program Version 5.0.3 -  RELEASE  -
|  1> !SC-NEVPT2 def2-TZVP def2-TZVP/C
|  2> !MOREAD RIJCOSX def2/J
|  3> %maxcore 4000
|  4> %moinp "casscf.gbw"
|  5> %pal nprocs 8 end
|  6>
|  7> %casscf
|  8>  mult 5,3
|  9>  bweight 1,1
| 10>  nroots 5,45
| 11>  nel 6
| 12>  norb 5
| 13>  ptsettings
| 14>   d4tpre 1e-14 # default = 1e-10
| 15>   d3tpre 1e-14
| 16>  end
| 17>  rel
| 18>    dosoc true
| 19>    gtensor true
| 20>  end
| 21> end
| 22>
| 23>
| 24> *xyzfile 0 5 pbe.xyz
| 25>
| 26>
| 27>                          ****END OF INPUT****

CARTESIAN COORDINATES (ANGSTROEM)
---------------------------------
  Au     6.503245    9.030521    5.878520
  Au    10.345597    7.711710    8.320027
  Au    11.831774    9.892552    7.336758
  Au     9.245296    9.440252    6.355253
  Au     9.129319    6.709534    6.062937
  Au     6.517008    6.313770    5.260838
  Au     7.364189   11.050231    7.587838
  Au     9.796516   10.520356    9.014628
  Au     9.241500    8.335729   10.778548
  Au     6.493436    7.721497   10.592312
  Au     7.394729   10.355984   10.276399
  Au     5.350315    9.375376    8.627934
  Au     5.805256    5.513632    9.122598
  Au     7.679155    4.691350    7.269016
  Au     8.639169    5.883003    9.604501
  Au     4.710381    7.139358    7.179563
  Cr     7.391445    7.583800    7.949174

 Total Charge           Charge          ....    0
 Multiplicity           Mult            ....    5
 Number of Electrons    NEL             ....  328
 Basis Dimension        Dim             ....  685

ORBITAL ENERGIES
----------------

  NO   OCC          E(Eh)            E(eV)
   0   2.0000    -220.502256     -6000.1714
   1   2.0000     -26.338062      -716.6951
   2   2.0000     -22.274042      -606.1075
   3   2.0000     -22.268484      -605.9563
   4   2.0000     -22.259265      -605.7054
   5   2.0000      -4.718016      -128.3837
   6   2.0000      -4.717375      -128.3663
   7   2.0000      -4.715536      -128.3163
   8   2.0000      -4.714771      -128.2955
   9   2.0000      -4.713679      -128.2657
  10   2.0000      -4.713652      -128.2650
  11   2.0000      -4.713168      -128.2518
  12   2.0000      -4.711838      -128.2156
  13   2.0000      -4.711422      -128.2043
  14   2.0000      -4.709995      -128.1655
  15   2.0000      -4.709641      -128.1559
  16   2.0000      -4.709601      -128.1548
  17   2.0000      -4.708391      -128.1218
  18   2.0000      -4.706181      -128.0617
  19   2.0000      -4.704816      -128.0246
  20   2.0000      -4.704404      -128.0133
  21   2.0000      -3.394648       -92.3731
  22   2.0000      -2.756910       -75.0193
  23   2.0000      -2.755866       -74.9909
  24   2.0000      -2.755747       -74.9877
  25   2.0000      -2.755458       -74.9798
  26   2.0000      -2.755032       -74.9682
  27   2.0000      -2.754193       -74.9454
  28   2.0000      -2.753468       -74.9257
  29   2.0000      -2.753314       -74.9215
  30   2.0000      -2.752559       -74.9009
  31   2.0000      -2.752386       -74.8962
  32   2.0000      -2.752116       -74.8889
  33   2.0000      -2.751892       -74.8828
  34   2.0000      -2.751397       -74.8693
  35   2.0000      -2.751043       -74.8597
  36   2.0000      -2.750945       -74.8570
  37   2.0000      -2.750634       -74.8486
  38   2.0000      -2.750258       -74.8383
  39   2.0000      -2.749566       -74.8195
  40   2.0000      -2.749171       -74.8087
  41   2.0000      -2.748342       -74.7862
  42   2.0000      -2.748252       -74.7837
  43   2.0000      -2.748221       -74.7829
  44   2.0000      -2.747347       -74.7591
  45   2.0000      -2.747329       -74.7586
  46   2.0000      -2.746857       -74.7458
  47   2.0000      -2.746638       -74.7398
  48   2.0000      -2.746526       -74.7368
  49   2.0000      -2.746017       -74.7229
  50   2.0000      -2.745614       -74.7120
  51   2.0000      -2.745156       -74.6995
  52   2.0000      -2.745047       -74.6965
  53   2.0000      -2.744746       -74.6883
  54   2.0000      -2.744662       -74.6861
  55   2.0000      -2.743978       -74.6674
  56   2.0000      -2.743764       -74.6616
  57   2.0000      -2.743219       -74.6468
  58   2.0000      -2.743108       -74.6438
  59   2.0000      -2.742769       -74.6345
  60   2.0000      -2.742246       -74.6203
  61   2.0000      -2.742204       -74.6192
  62   2.0000      -2.740794       -74.5808
  63   2.0000      -2.740533       -74.5737
  64   2.0000      -2.740071       -74.5611
  65   2.0000      -2.739622       -74.5489
  66   2.0000      -2.739037       -74.5330
  67   2.0000      -2.738800       -74.5265
  68   2.0000      -2.738509       -74.5186
  69   2.0000      -2.737970       -74.5040
  70   2.0000      -2.162012       -58.8313
  71   2.0000      -2.158517       -58.7362
  72   2.0000      -2.148272       -58.4574
  73   2.0000      -0.560490       -15.2517
  74   2.0000      -0.556160       -15.1339
  75   2.0000      -0.551528       -15.0078
  76   2.0000      -0.549934       -14.9645
  77   2.0000      -0.547076       -14.8867
  78   2.0000      -0.546191       -14.8626
  79   2.0000      -0.544021       -14.8036
  80   2.0000      -0.543385       -14.7863
  81   2.0000      -0.541060       -14.7230
  82   2.0000      -0.540714       -14.7136
  83   2.0000      -0.539513       -14.6809
  84   2.0000      -0.538668       -14.6579
  85   2.0000      -0.538173       -14.6444
  86   2.0000      -0.536723       -14.6050
  87   2.0000      -0.535480       -14.5711
  88   2.0000      -0.534693       -14.5497
  89   2.0000      -0.533462       -14.5162
  90   2.0000      -0.531706       -14.4685
  91   2.0000      -0.529818       -14.4171
  92   2.0000      -0.528278       -14.3752
  93   2.0000      -0.525970       -14.3124
  94   2.0000      -0.524309       -14.2672
  95   2.0000      -0.522925       -14.2295
  96   2.0000      -0.517139       -14.0721
  97   2.0000      -0.516465       -14.0537
  98   2.0000      -0.516018       -14.0416
  99   2.0000      -0.514174       -13.9914
 100   2.0000      -0.513414       -13.9707
 101   2.0000      -0.511276       -13.9125
 102   2.0000      -0.507182       -13.8011
 103   2.0000      -0.505360       -13.7516
 104   2.0000      -0.501780       -13.6541
 105   2.0000      -0.497978       -13.5507
 106   2.0000      -0.494894       -13.4668
 107   2.0000      -0.492506       -13.4018
 108   2.0000      -0.491509       -13.3746
 109   2.0000      -0.488871       -13.3029
 110   2.0000      -0.486549       -13.2397
 111   2.0000      -0.484320       -13.1790
 112   2.0000      -0.480553       -13.0765
 113   2.0000      -0.475686       -12.9441
 114   2.0000      -0.472991       -12.8707
 115   2.0000      -0.469941       -12.7878
 116   2.0000      -0.468945       -12.7606
 117   2.0000      -0.467842       -12.7306
 118   2.0000      -0.466932       -12.7059
 119   2.0000      -0.463427       -12.6105
 120   2.0000      -0.462693       -12.5905
 121   2.0000      -0.457659       -12.4535
 122   2.0000      -0.457149       -12.4396
 123   2.0000      -0.454067       -12.3558
 124   2.0000      -0.453076       -12.3288
 125   2.0000      -0.451982       -12.2991
 126   2.0000      -0.450254       -12.2520
 127   2.0000      -0.449090       -12.2204
 128   2.0000      -0.447311       -12.1720
 129   2.0000      -0.442643       -12.0449
 130   2.0000      -0.441353       -12.0098
 131   2.0000      -0.439464       -11.9584
 132   2.0000      -0.439148       -11.9498
 133   2.0000      -0.436590       -11.8802
 134   2.0000      -0.436148       -11.8682
 135   2.0000      -0.434567       -11.8252
 136   2.0000      -0.433663       -11.8006
 137   2.0000      -0.431438       -11.7400
 138   2.0000      -0.428767       -11.6673
 139   2.0000      -0.427944       -11.6449
 140   2.0000      -0.426906       -11.6167
 141   2.0000      -0.425359       -11.5746
 142   2.0000      -0.423116       -11.5136
 143   2.0000      -0.419626       -11.4186
 144   2.0000      -0.418546       -11.3892
 145   2.0000      -0.417030       -11.3480
 146   2.0000      -0.414991       -11.2925
 147   2.0000      -0.413620       -11.2552
 148   2.0000      -0.412871       -11.2348
 149   2.0000      -0.410797       -11.1783
 150   2.0000      -0.405904       -11.0452
 151   2.0000      -0.397081       -10.8051
 152   2.0000      -0.392485       -10.6801
 153   2.0000      -0.379279       -10.3207
 154   2.0000      -0.378759       -10.3065
 155   2.0000      -0.356650        -9.7050
 156   2.0000      -0.350546        -9.5388
 157   2.0000      -0.268622        -7.3096
 158   2.0000      -0.249728        -6.7954
 159   2.0000      -0.244753        -6.6601
 160   2.0000      -0.230057        -6.2602
 161   1.2000      -0.124221        -3.3802
 162   1.2000      -0.102285        -2.7833
 163   1.2000      -0.084583        -2.3016
 164   1.2000      -0.092942        -2.5291
 165   1.2000      -0.125336        -3.4106
 166   0.0000      -0.027191        -0.7399
 167   0.0000      -0.012712        -0.3459
 168   0.0000      -0.008232        -0.2240
 169   0.0000      -0.004912        -0.1336
 170   0.0000       0.000836         0.0227

MULLIKEN ATOMIC CHARGES AND SPIN DENSITIES
------------------------------------------
   0 Au:    0.523633    0.025886
   1 Au:   -0.133572    0.050298
   2 Au:    0.688238    0.008966
   3 Au:   -0.094781    0.052200
   4 Au:    0.334679    0.011669
   5 Au:    0.488161    0.016975
   6 Au:    0.339895    0.024202
   7 Au:   -0.240134    0.006116
   8 Au:    0.345059    0.025319
   9 Au:    0.359023    0.069384
  10 Au:    0.350128    0.013356
  11 Au:    0.347061    0.066621
  12 Au:    0.482971    0.017279
  13 Au:    0.454695    0.014726
  14 Au:    0.559522    0.026475
  15 Au:    0.468306    0.013850
  16 Cr:   -5.272885    2.556677
Sum of atomic charges       :    0.0000000

LOEWDIN ATOMIC CHARGES AND SPIN DENSITIES
-----------------------------------------
   0 Au:    0.084985    0.053886
   1 Au:   -0.035393    0.050702
   2 Au:    0.247923    0.018745
   3 Au:   -0.035921    0.049979
   4 Au:    0.091856    0.042770
   5 Au:    0.131963    0.026777
   6 Au:    0.087401    0.038845
   7 Au:   -0.056469    0.014985
   8 Au:    0.090326    0.039600
   9 Au:    0.059979    0.066310
  10 Au:    0.058850    0.030985
  11 Au:    0.064081    0.064031
  12 Au:    0.149382    0.038064
  13 Au:    0.120654    0.027585
  14 Au:    0.096008    0.055210
  15 Au:    0.141654    0.035561
  16 Cr:   -1.297279    2.345964

  Mayer bond orders larger than 0.100000
B(  0-Au,  3-Au) :   0.1724 B(  0-Au,  5-Au) :   0.1804 B(  0-Au,  6-Au) :   0.1207
B(  0-Au, 14-Au) :   0.2279 B(  0-Au, 15-Au) :   0.1337 B(  0-Au, 16-Cr) :   0.2148
B(  1-Au,  2-Au) :   0.2384 B(  1-Au,  3-Au) :   0.3481 B(  1-Au,  4-Au) :   0.1115
B(  1-Au,  7-Au) :   0.2926 B(  1-Au,  8-Au) :   0.1893 B(  1-Au, 14-Au) :   0.1689
B(  1-Au, 16-Cr) :   0.4545 B(  2-Au,  3-Au) :   0.2336 B(  2-Au,  7-Au) :   0.2507
B(  3-Au,  6-Au) :   0.1954 B(  3-Au,  7-Au) :   0.2884 B(  3-Au, 16-Cr) :   0.4511
B(  4-Au,  5-Au) :   0.1762 B(  4-Au,  9-Au) :   0.1200 B(  4-Au, 11-Au) :   0.1054
B(  4-Au, 13-Au) :   0.1900 B(  4-Au, 16-Cr) :   0.4066 B(  5-Au, 13-Au) :   0.1371
B(  5-Au, 15-Au) :   0.1932 B(  5-Au, 16-Cr) :   0.2646 B(  6-Au,  7-Au) :   0.1621
B(  6-Au, 10-Au) :   0.1482 B(  6-Au, 16-Cr) :   0.4548 B(  7-Au,  8-Au) :   0.1489
B(  7-Au, 10-Au) :   0.2704 B(  7-Au, 16-Cr) :   0.3632 B(  8-Au,  9-Au) :   0.1074
B(  8-Au, 10-Au) :   0.1471 B(  8-Au, 14-Au) :   0.1217 B(  8-Au, 16-Cr) :   0.4448
B(  9-Au, 10-Au) :   0.1334 B(  9-Au, 11-Au) :   0.1333 B(  9-Au, 12-Au) :   0.1664
B(  9-Au, 16-Cr) :   0.3811 B( 10-Au, 11-Au) :   0.1362 B( 10-Au, 16-Cr) :   0.4236
B( 11-Au, 15-Au) :   0.1658 B( 11-Au, 16-Cr) :   0.4010 B( 12-Au, 13-Au) :   0.1958
B( 12-Au, 14-Au) :   0.1320 B( 12-Au, 15-Au) :   0.1443 B( 12-Au, 16-Cr) :   0.2475
B( 13-Au, 14-Au) :   0.1775 B( 13-Au, 16-Cr) :   0.2689 B( 14-Au, 16-Cr) :   0.2058
B( 15-Au, 16-Cr) :   0.2466

FINAL SINGLE POINT ENERGY     -3208.183795622925

DIPOLE MOMENT
-------------
                                X             Y             Z
Electronic contribution:     17.36080      18.08104       4.25208
Nuclear contribution   :    -17.16907     -18.40493      -4.58993
                        -----------------------------------------
Total Dipole Moment    :      0.19173      -0.32388      -0.33785
                        -----------------------------------------
Magnitude (a.u.)       :      0.50577
Magnitude (Debye)      :      1.28556

Rotational constants in cm-1:     0.000981     0.000754     0.000714
Rotational constants in MHz :    29.398088    22.617518    21.417188

                             ****ORCA TERMINATED NORMALLY****
TOTAL RUN TIME: 0 days 2 hours 12 minutes 53 seconds 759 msec
