                         Program Version 5.0.3 -  RELEASE  -
|  1> !SC-NEVPT2 def2-TZVP def2-TZVP/C
|  2> !MOREAD RIJCOSX def2/J
|  3> %maxcore 4000
|  4> %moinp "casscf.gbw"
|  5> %pal nprocs 8 end
|  6>
|  7> %casscf
|  8>  mult 5,3
|  9>  bweight 1,1
| 10>  nroots 5,45
| 11>  nel 6
| 12>  norb 5
| 13>  ptsettings
| 14>   d4tpre 1e-14 # default = 1e-10
| 15>   d3tpre 1e-14
| 16>  end
| 17>  rel
| 18>    dosoc true
| 19>    gtensor true
| 20>  end
| 21> end
| 22>
| 23>
| 24> *xyzfile 0 5 pbe.xyz
| 25>
| 26>
| 27>                          ****END OF INPUT****

CARTESIAN COORDINATES (ANGSTROEM)
---------------------------------
  Au    10.221843   10.202972    8.580339
  Au     8.542639   10.534900    6.254388
  Au    11.368035   10.102008    6.035668
  Au    11.834850    8.008103    7.963459
  Au     9.224248    6.093926    4.354954
  Au    10.903809    5.830389    6.584368
  Au    10.271005    8.664520    3.977042
  Au     7.548820    8.264878    4.720997
  Au     6.043457    9.416806    6.608954
  Au     4.922993    9.514754    9.103219
  Au     6.506149    7.371197    8.482437
  Au     7.601929   10.036758    9.023078
  Au     8.071383    5.930460    6.863820
  Au     9.209865    7.534070    9.016068
  Cr     9.580311    8.110915    6.463563

 Total Charge           Charge          ....    0
 Multiplicity           Mult            ....    5
 Number of Electrons    NEL             ....  290
 Basis Dimension        Dim             ....  605

ORBITAL ENERGIES
----------------

  NO   OCC          E(Eh)            E(eV)
   0   2.0000    -220.547561     -6001.4042
   1   2.0000     -26.393897      -718.2144
   2   2.0000     -22.326487      -607.5346
   3   2.0000     -22.325425      -607.5057
   4   2.0000     -22.315648      -607.2397
   5   2.0000      -4.716255      -128.3358
   6   2.0000      -4.716238      -128.3354
   7   2.0000      -4.712241      -128.2266
   8   2.0000      -4.710929      -128.1909
   9   2.0000      -4.710868      -128.1892
  10   2.0000      -4.710264      -128.1728
  11   2.0000      -4.709956      -128.1644
  12   2.0000      -4.709814      -128.1606
  13   2.0000      -4.708489      -128.1245
  14   2.0000      -4.708376      -128.1214
  15   2.0000      -4.704187      -128.0074
  16   2.0000      -4.700989      -127.9204
  17   2.0000      -4.699761      -127.8870
  18   2.0000      -4.699595      -127.8825
  19   2.0000      -3.442302       -93.6698
  20   2.0000      -2.755359       -74.9771
  21   2.0000      -2.755302       -74.9756
  22   2.0000      -2.753610       -74.9295
  23   2.0000      -2.753554       -74.9280
  24   2.0000      -2.752842       -74.9086
  25   2.0000      -2.751899       -74.8830
  26   2.0000      -2.751740       -74.8787
  27   2.0000      -2.751366       -74.8685
  28   2.0000      -2.751271       -74.8659
  29   2.0000      -2.750272       -74.8387
  30   2.0000      -2.749948       -74.8299
  31   2.0000      -2.749207       -74.8097
  32   2.0000      -2.747997       -74.7768
  33   2.0000      -2.747665       -74.7678
  34   2.0000      -2.746833       -74.7451
  35   2.0000      -2.746636       -74.7398
  36   2.0000      -2.746542       -74.7372
  37   2.0000      -2.746151       -74.7266
  38   2.0000      -2.745567       -74.7107
  39   2.0000      -2.745295       -74.7033
  40   2.0000      -2.745002       -74.6953
  41   2.0000      -2.744094       -74.6706
  42   2.0000      -2.743695       -74.6597
  43   2.0000      -2.743295       -74.6489
  44   2.0000      -2.742922       -74.6387
  45   2.0000      -2.742499       -74.6272
  46   2.0000      -2.742132       -74.6172
  47   2.0000      -2.741871       -74.6101
  48   2.0000      -2.741464       -74.5990
  49   2.0000      -2.741105       -74.5893
  50   2.0000      -2.740359       -74.5690
  51   2.0000      -2.740020       -74.5597
  52   2.0000      -2.739341       -74.5413
  53   2.0000      -2.736931       -74.4757
  54   2.0000      -2.735747       -74.4435
  55   2.0000      -2.735698       -74.4421
  56   2.0000      -2.735487       -74.4364
  57   2.0000      -2.734331       -74.4049
  58   2.0000      -2.734132       -74.3995
  59   2.0000      -2.733449       -74.3809
  60   2.0000      -2.733254       -74.3756
  61   2.0000      -2.731266       -74.3215
  62   2.0000      -2.203856       -59.9700
  63   2.0000      -2.203201       -59.9521
  64   2.0000      -2.194262       -59.7089
  65   2.0000      -0.561103       -15.2684
  66   2.0000      -0.557190       -15.1619
  67   2.0000      -0.550137       -14.9700
  68   2.0000      -0.548836       -14.9346
  69   2.0000      -0.542910       -14.7733
  70   2.0000      -0.540557       -14.7093
  71   2.0000      -0.539733       -14.6869
  72   2.0000      -0.539129       -14.6705
  73   2.0000      -0.538257       -14.6467
  74   2.0000      -0.538180       -14.6446
  75   2.0000      -0.533968       -14.5300
  76   2.0000      -0.532965       -14.5027
  77   2.0000      -0.529086       -14.3972
  78   2.0000      -0.526487       -14.3264
  79   2.0000      -0.526194       -14.3185
  80   2.0000      -0.524599       -14.2751
  81   2.0000      -0.522725       -14.2241
  82   2.0000      -0.521978       -14.2038
  83   2.0000      -0.516039       -14.0421
  84   2.0000      -0.516005       -14.0412
  85   2.0000      -0.515030       -14.0147
  86   2.0000      -0.513310       -13.9679
  87   2.0000      -0.508697       -13.8423
  88   2.0000      -0.506591       -13.7850
  89   2.0000      -0.505293       -13.7497
  90   2.0000      -0.503609       -13.7039
  91   2.0000      -0.498062       -13.5530
  92   2.0000      -0.493979       -13.4419
  93   2.0000      -0.493651       -13.4329
  94   2.0000      -0.489894       -13.3307
  95   2.0000      -0.484236       -13.1767
  96   2.0000      -0.480726       -13.0812
  97   2.0000      -0.479024       -13.0349
  98   2.0000      -0.476511       -12.9665
  99   2.0000      -0.472784       -12.8651
 100   2.0000      -0.470947       -12.8151
 101   2.0000      -0.469023       -12.7628
 102   2.0000      -0.467166       -12.7122
 103   2.0000      -0.464392       -12.6368
 104   2.0000      -0.463634       -12.6161
 105   2.0000      -0.462310       -12.5801
 106   2.0000      -0.461711       -12.5638
 107   2.0000      -0.457561       -12.4509
 108   2.0000      -0.453524       -12.3410
 109   2.0000      -0.450698       -12.2641
 110   2.0000      -0.448499       -12.2043
 111   2.0000      -0.447169       -12.1681
 112   2.0000      -0.446665       -12.1544
 113   2.0000      -0.444226       -12.0880
 114   2.0000      -0.443170       -12.0593
 115   2.0000      -0.442711       -12.0468
 116   2.0000      -0.442368       -12.0375
 117   2.0000      -0.441818       -12.0225
 118   2.0000      -0.441166       -12.0047
 119   2.0000      -0.437647       -11.9090
 120   2.0000      -0.434813       -11.8319
 121   2.0000      -0.433085       -11.7848
 122   2.0000      -0.431202       -11.7336
 123   2.0000      -0.428833       -11.6691
 124   2.0000      -0.427845       -11.6423
 125   2.0000      -0.420612       -11.4454
 126   2.0000      -0.419211       -11.4073
 127   2.0000      -0.418842       -11.3973
 128   2.0000      -0.417513       -11.3611
 129   2.0000      -0.413037       -11.2393
 130   2.0000      -0.412089       -11.2135
 131   2.0000      -0.405601       -11.0370
 132   2.0000      -0.403035       -10.9671
 133   2.0000      -0.398718       -10.8497
 134   2.0000      -0.394089       -10.7237
 135   2.0000      -0.384679       -10.4677
 136   2.0000      -0.372368       -10.1326
 137   2.0000      -0.345582        -9.4038
 138   2.0000      -0.330434        -8.9916
 139   2.0000      -0.259623        -7.0647
 140   2.0000      -0.241748        -6.5783
 141   2.0000      -0.235834        -6.4174
 142   1.2000      -0.138692        -3.7740
 143   1.2000      -0.116913        -3.1814
 144   1.2000      -0.133766        -3.6400
 145   1.2000      -0.149742        -4.0747
 146   1.2000      -0.126247        -3.4354
 147   0.0000      -0.005831        -0.1587
 148   0.0000      -0.001817        -0.0495
 149   0.0000       0.003770         0.1026
 150   0.0000       0.010085         0.2744
 151   0.0000       0.021480         0.5845

MULLIKEN ATOMIC CHARGES AND SPIN DENSITIES
------------------------------------------
   0 Au:    0.493459    0.030375
   1 Au:    0.464951    0.011975
   2 Au:    0.471471    0.026426
   3 Au:    0.471283    0.026612
   4 Au:    0.533544    0.044784
   5 Au:    0.494968    0.018746
   6 Au:    0.495740    0.018398
   7 Au:    0.366661    0.025327
   8 Au:   -0.020550    0.009656
   9 Au:    0.543918    0.002246
  10 Au:   -0.042259    0.009679
  11 Au:   -0.304076    0.014333
  12 Au:    0.382725    0.025427
  13 Au:    0.472077    0.011821
  14 Cr:   -4.823911    2.724194
Sum of atomic charges       :    0.0000000

LOEWDIN ATOMIC CHARGES AND SPIN DENSITIES
-----------------------------------------
   0 Au:    0.079535    0.064836
   1 Au:    0.073265    0.051828
   2 Au:    0.126624    0.060113
   3 Au:    0.126695    0.060480
   4 Au:    0.142110    0.085367
   5 Au:    0.146009    0.062447
   6 Au:    0.146285    0.062063
   7 Au:    0.064136    0.066557
   8 Au:   -0.032757    0.016308
   9 Au:    0.199012    0.005323
  10 Au:   -0.036102    0.016324
  11 Au:   -0.070618    0.023070
  12 Au:    0.065692    0.066476
  13 Au:    0.075218    0.051979
  14 Cr:   -1.105102    2.306828

  Mayer bond orders larger than 0.100000
B(  0-Au,  1-Au) :   0.1231 B(  0-Au, 11-Au) :   0.3866 B(  0-Au, 13-Au) :   0.1226
B(  0-Au, 14-Cr) :   0.2824 B(  1-Au,  5-Au) :   0.1913 B(  1-Au,  7-Au) :   0.1329
B(  1-Au,  8-Au) :   0.2078 B(  1-Au, 11-Au) :   0.1283 B(  1-Au, 14-Cr) :   0.2972
B(  2-Au,  3-Au) :   0.1409 B(  2-Au,  6-Au) :   0.2105 B(  2-Au, 12-Au) :   0.1754
B(  2-Au, 14-Cr) :   0.4548 B(  3-Au,  5-Au) :   0.2097 B(  3-Au,  7-Au) :   0.1752
B(  3-Au, 14-Cr) :   0.4557 B(  4-Au,  5-Au) :   0.1594 B(  4-Au,  6-Au) :   0.1599
B(  4-Au,  7-Au) :   0.1528 B(  4-Au, 12-Au) :   0.1514 B(  4-Au, 14-Cr) :   0.3116
B(  5-Au, 12-Au) :   0.1128 B(  5-Au, 14-Cr) :   0.3579 B(  6-Au,  7-Au) :   0.1115
B(  6-Au, 13-Au) :   0.1918 B(  6-Au, 14-Cr) :   0.3566 B(  7-Au,  8-Au) :   0.2648
B(  7-Au, 12-Au) :   0.1152 B(  7-Au, 14-Cr) :   0.3634 B(  8-Au,  9-Au) :   0.2609
B(  8-Au, 10-Au) :   0.2209 B(  8-Au, 11-Au) :   0.2751 B(  8-Au, 14-Cr) :   0.4560
B(  9-Au, 10-Au) :   0.2667 B(  9-Au, 11-Au) :   0.3515 B( 10-Au, 11-Au) :   0.2815
B( 10-Au, 12-Au) :   0.2632 B( 10-Au, 13-Au) :   0.2088 B( 10-Au, 14-Cr) :   0.4610
B( 11-Au, 13-Au) :   0.1258 B( 11-Au, 14-Cr) :   0.3776 B( 12-Au, 13-Au) :   0.1281
B( 12-Au, 14-Cr) :   0.3532 B( 13-Au, 14-Cr) :   0.2952

FINAL SINGLE POINT ENERGY     -2937.685251968382

DIPOLE MOMENT
-------------
                                X             Y             Z
Electronic contribution:    -29.56239       9.84943      17.64771
Nuclear contribution   :     29.81147      -9.94174     -17.80368
                        -----------------------------------------
Total Dipole Moment    :      0.24908      -0.09231      -0.15596
                        -----------------------------------------
Magnitude (a.u.)       :      0.30804
Magnitude (Debye)      :      0.78297

Rotational constants in cm-1:     0.001278     0.000891     0.000822
Rotational constants in MHz :    38.326100    26.721142    24.642903

                             ****ORCA TERMINATED NORMALLY****
TOTAL RUN TIME: 0 days 1 hours 18 minutes 1 seconds 844 msec
