                         Program Version 5.0.3 -  RELEASE  -
|  1> %pal nprocs 1 end
|  2>
|  3> !PBE def2-TZVP OPT UNO
|  4> !SLOWCONV KDIIS
|  5>
|  6> %geom maxiter 300 end
|  7>
|  8> *xyzfile 0 5 8.xyz                           ****END OF INPUT****
 Total Charge           Charge          ....    0
 Multiplicity           Mult            ....    5
 Number of Electrons    NEL             ....  252
FINAL SINGLE POINT ENERGY     -2674.137021371199
FINAL SINGLE POINT ENERGY     -2674.138256844431
FINAL SINGLE POINT ENERGY     -2674.138970107507
FINAL SINGLE POINT ENERGY     -2674.139832965615
FINAL SINGLE POINT ENERGY     -2674.140279658578
FINAL SINGLE POINT ENERGY     -2674.140902939559
FINAL SINGLE POINT ENERGY     -2674.141797905228
FINAL SINGLE POINT ENERGY     -2674.142680105756
FINAL SINGLE POINT ENERGY     -2674.143602793471
FINAL SINGLE POINT ENERGY     -2674.144615308127
FINAL SINGLE POINT ENERGY     -2674.154789711427
FINAL SINGLE POINT ENERGY     -2674.154825973647
FINAL SINGLE POINT ENERGY     -2674.154852794564
FINAL SINGLE POINT ENERGY     -2674.154874989924
FINAL SINGLE POINT ENERGY     -2674.154886177413
FINAL SINGLE POINT ENERGY     -2674.154896310597
FINAL SINGLE POINT ENERGY     -2674.154901211554
FINAL SINGLE POINT ENERGY     -2674.154904886207
FINAL SINGLE POINT ENERGY     -2674.154906153683
                    ***********************HURRAY********************

CARTESIAN COORDINATES (ANGSTROEM)
---------------------------------
  Au     6.700679    9.106000   11.050334
  Au     6.482535   10.902843    9.111922
  Au     6.822536    6.288653   11.090989
  Au     9.137586    7.597270   10.148289
  Au     9.728974    8.891606    7.909977
  Au     5.425074   11.776690    6.673099
  Au     7.308926    5.700225    8.375050
  Au     8.058872    7.156584    6.289909
  Au     9.586415    9.194715    5.130363
  Au     4.869504    7.209012    9.274728
  Au     4.807950    9.171109    7.490495
  Au     7.432600   10.056525    6.422316
  Cr     7.151630    8.316288    8.583470

 Multiplicity           Mult            ....    5
 Number of Electrons    NEL             ....  252
 Basis Dimension        Dim             ....  525

ORBITAL ENERGIES
----------------
                 SPIN UP ORBITALS
  NO   OCC          E(Eh)            E(eV)
   0   1.0000    -214.485721     -5836.4532
   1   1.0000     -24.288915      -660.9350
   2   1.0000     -20.654104      -562.0267
   3   1.0000     -20.651877      -561.9661
   4   1.0000     -20.650299      -561.9232
   5   1.0000      -4.036976      -109.8517
   6   1.0000      -4.022794      -109.4658
   7   1.0000      -4.022767      -109.4650
   8   1.0000      -4.022657      -109.4621
   9   1.0000      -4.022625      -109.4612
  10   1.0000      -4.022527      -109.4585
  11   1.0000      -4.022511      -109.4581
  12   1.0000      -4.017234      -109.3145
  13   1.0000      -4.017201      -109.3136
  14   1.0000      -4.017173      -109.3128
  15   1.0000      -4.017152      -109.3123
  16   1.0000      -4.016552      -109.2959
  17   1.0000      -2.792610       -75.9908
  18   1.0000      -2.256978       -61.4155
  19   1.0000      -2.249521       -61.2126
  20   1.0000      -2.243736       -61.0551
  21   1.0000      -2.241951       -61.0066
  22   1.0000      -2.241566       -60.9961
  23   1.0000      -2.240707       -60.9727
  24   1.0000      -2.240672       -60.9718
  25   1.0000      -2.239750       -60.9467
  26   1.0000      -2.239357       -60.9360
  27   1.0000      -2.238013       -60.8994
  28   1.0000      -2.237923       -60.8970
  29   1.0000      -2.237180       -60.8768
  30   1.0000      -2.237114       -60.8750
  31   1.0000      -2.234157       -60.7945
  32   1.0000      -2.234030       -60.7910
  33   1.0000      -2.233900       -60.7875
  34   1.0000      -2.233796       -60.7847
  35   1.0000      -2.232908       -60.7605
  36   1.0000      -2.232883       -60.7598
  37   1.0000      -2.232706       -60.7550
  38   1.0000      -2.232563       -60.7511
  39   1.0000      -2.232412       -60.7470
  40   1.0000      -2.232302       -60.7440
  41   1.0000      -2.231612       -60.7253
  42   1.0000      -2.230814       -60.7035
  43   1.0000      -2.229840       -60.6770
  44   1.0000      -2.229816       -60.6764
  45   1.0000      -2.229401       -60.6651
  46   1.0000      -2.228812       -60.6491
  47   1.0000      -2.228778       -60.6481
  48   1.0000      -2.228333       -60.6360
  49   1.0000      -2.227647       -60.6173
  50   1.0000      -2.224413       -60.5294
  51   1.0000      -2.224022       -60.5187
  52   1.0000      -2.223781       -60.5121
  53   1.0000      -2.223440       -60.5029
  54   1.0000      -1.784415       -48.5564
  55   1.0000      -1.781884       -48.4875
  56   1.0000      -1.780584       -48.4522
  57   1.0000      -0.417499       -11.3607
  58   1.0000      -0.390075       -10.6145
  59   1.0000      -0.381508       -10.3814
  60   1.0000      -0.363422        -9.8892
  61   1.0000      -0.361503        -9.8370
  62   1.0000      -0.358687        -9.7604
  63   1.0000      -0.357968        -9.7408
  64   1.0000      -0.355170        -9.6647
  65   1.0000      -0.341513        -9.2930
  66   1.0000      -0.341200        -9.2845
  67   1.0000      -0.340816        -9.2741
  68   1.0000      -0.339436        -9.2365
  69   1.0000      -0.334156        -9.0929
  70   1.0000      -0.331359        -9.0167
  71   1.0000      -0.330682        -8.9983
  72   1.0000      -0.328561        -8.9406
  73   1.0000      -0.326560        -8.8862
  74   1.0000      -0.324526        -8.8308
  75   1.0000      -0.323200        -8.7947
  76   1.0000      -0.320679        -8.7261
  77   1.0000      -0.318372        -8.6633
  78   1.0000      -0.310619        -8.4524
  79   1.0000      -0.310273        -8.4430
  80   1.0000      -0.307703        -8.3730
  81   1.0000      -0.306249        -8.3334
  82   1.0000      -0.303282        -8.2527
  83   1.0000      -0.301554        -8.2057
  84   1.0000      -0.301001        -8.1907
  85   1.0000      -0.297328        -8.0907
  86   1.0000      -0.295702        -8.0465
  87   1.0000      -0.288719        -7.8564
  88   1.0000      -0.287960        -7.8358
  89   1.0000      -0.287581        -7.8255
  90   1.0000      -0.283856        -7.7241
  91   1.0000      -0.282350        -7.6831
  92   1.0000      -0.281804        -7.6683
  93   1.0000      -0.280084        -7.6215
  94   1.0000      -0.278801        -7.5866
  95   1.0000      -0.278411        -7.5759
  96   1.0000      -0.277853        -7.5608
  97   1.0000      -0.272535        -7.4161
  98   1.0000      -0.270990        -7.3740
  99   1.0000      -0.270611        -7.3637
 100   1.0000      -0.270118        -7.3503
 101   1.0000      -0.268067        -7.2945
 102   1.0000      -0.267785        -7.2868
 103   1.0000      -0.266412        -7.2495
 104   1.0000      -0.264618        -7.2006
 105   1.0000      -0.262036        -7.1304
 106   1.0000      -0.259896        -7.0721
 107   1.0000      -0.256424        -6.9777
 108   1.0000      -0.253267        -6.8917
 109   1.0000      -0.253179        -6.8894
 110   1.0000      -0.252522        -6.8715
 111   1.0000      -0.250078        -6.8050
 112   1.0000      -0.249322        -6.7844
 113   1.0000      -0.247122        -6.7245
 114   1.0000      -0.246633        -6.7112
 115   1.0000      -0.243290        -6.6202
 116   1.0000      -0.242959        -6.6113
 117   1.0000      -0.241818        -6.5802
 118   1.0000      -0.241701        -6.5770
 119   1.0000      -0.230249        -6.2654
 120   1.0000      -0.225638        -6.1399
 121   1.0000      -0.219196        -5.9646
 122   1.0000      -0.216958        -5.9037
 123   1.0000      -0.210722        -5.7340
 124   1.0000      -0.207706        -5.6520
 125   1.0000      -0.197156        -5.3649
 126   1.0000      -0.191808        -5.2194
 127   1.0000      -0.185009        -5.0344
 128   0.0000      -0.158630        -4.3165
 129   0.0000      -0.154483        -4.2037
 130   0.0000      -0.154119        -4.1938
 131   0.0000      -0.133498        -3.6327
 132   0.0000      -0.122404        -3.3308

                 SPIN DOWN ORBITALS
  NO   OCC          E(Eh)            E(eV)
   0   1.0000    -214.485269     -5836.4409
   1   1.0000     -24.242598      -659.6746
   2   1.0000     -20.620242      -561.1053
   3   1.0000     -20.617277      -561.0246
   4   1.0000     -20.612569      -560.8965
   5   1.0000      -4.035225      -109.8041
   6   1.0000      -4.021927      -109.4422
   7   1.0000      -4.021915      -109.4419
   8   1.0000      -4.021543      -109.4317
   9   1.0000      -4.021520      -109.4311
  10   1.0000      -4.021433      -109.4288
  11   1.0000      -4.021404      -109.4280
  12   1.0000      -4.016169      -109.2855
  13   1.0000      -4.016130      -109.2844
  14   1.0000      -4.016100      -109.2836
  15   1.0000      -4.016080      -109.2831
  16   1.0000      -4.015697      -109.2727
  17   1.0000      -2.667569       -72.5882
  18   1.0000      -2.255140       -61.3655
  19   1.0000      -2.246826       -61.1392
  20   1.0000      -2.242699       -61.0269
  21   1.0000      -2.240872       -60.9772
  22   1.0000      -2.240408       -60.9646
  23   1.0000      -2.239449       -60.9385
  24   1.0000      -2.239424       -60.9378
  25   1.0000      -2.238545       -60.9139
  26   1.0000      -2.238182       -60.9040
  27   1.0000      -2.236429       -60.8563
  28   1.0000      -2.236326       -60.8535
  29   1.0000      -2.235458       -60.8299
  30   1.0000      -2.235400       -60.8283
  31   1.0000      -2.232836       -60.7585
  32   1.0000      -2.232764       -60.7566
  33   1.0000      -2.232709       -60.7551
  34   1.0000      -2.232606       -60.7523
  35   1.0000      -2.232076       -60.7379
  36   1.0000      -2.231872       -60.7323
  37   1.0000      -2.231858       -60.7319
  38   1.0000      -2.231759       -60.7293
  39   1.0000      -2.231365       -60.7185
  40   1.0000      -2.231337       -60.7178
  41   1.0000      -2.230517       -60.6954
  42   1.0000      -2.229592       -60.6703
  43   1.0000      -2.228914       -60.6518
  44   1.0000      -2.228901       -60.6515
  45   1.0000      -2.228348       -60.6364
  46   1.0000      -2.227904       -60.6243
  47   1.0000      -2.227868       -60.6234
  48   1.0000      -2.227134       -60.6034
  49   1.0000      -2.227018       -60.6002
  50   1.0000      -2.223496       -60.5044
  51   1.0000      -2.223107       -60.4938
  52   1.0000      -2.222861       -60.4871
  53   1.0000      -2.222523       -60.4779
  54   1.0000      -1.666213       -45.3400
  55   1.0000      -1.661038       -45.1992
  56   1.0000      -1.650057       -44.9003
  57   1.0000      -0.412973       -11.2376
  58   1.0000      -0.383669       -10.4402
  59   1.0000      -0.379229       -10.3193
  60   1.0000      -0.359161        -9.7733
  61   1.0000      -0.357981        -9.7411
  62   1.0000      -0.356159        -9.6916
  63   1.0000      -0.354095        -9.6354
  64   1.0000      -0.352085        -9.5807
  65   1.0000      -0.338276        -9.2049
  66   1.0000      -0.338152        -9.2016
  67   1.0000      -0.337800        -9.1920
  68   1.0000      -0.337104        -9.1731
  69   1.0000      -0.329530        -8.9670
  70   1.0000      -0.327995        -8.9252
  71   1.0000      -0.325995        -8.8708
  72   1.0000      -0.323799        -8.8110
  73   1.0000      -0.323314        -8.7978
  74   1.0000      -0.321836        -8.7576
  75   1.0000      -0.319304        -8.6887
  76   1.0000      -0.318122        -8.6566
  77   1.0000      -0.317364        -8.6359
  78   1.0000      -0.308912        -8.4059
  79   1.0000      -0.305232        -8.3058
  80   1.0000      -0.303638        -8.2624
  81   1.0000      -0.303463        -8.2576
  82   1.0000      -0.302397        -8.2287
  83   1.0000      -0.299977        -8.1628
  84   1.0000      -0.298055        -8.1105
  85   1.0000      -0.295630        -8.0445
  86   1.0000      -0.294177        -8.0050
  87   1.0000      -0.287829        -7.8322
  88   1.0000      -0.287041        -7.8108
  89   1.0000      -0.285521        -7.7694
  90   1.0000      -0.282608        -7.6902
  91   1.0000      -0.281474        -7.6593
  92   1.0000      -0.278453        -7.5771
  93   1.0000      -0.277996        -7.5647
  94   1.0000      -0.277502        -7.5512
  95   1.0000      -0.277463        -7.5502
  96   1.0000      -0.276873        -7.5341
  97   1.0000      -0.271425        -7.3858
  98   1.0000      -0.269965        -7.3461
  99   1.0000      -0.269726        -7.3396
 100   1.0000      -0.269387        -7.3304
 101   1.0000      -0.266954        -7.2642
 102   1.0000      -0.266917        -7.2632
 103   1.0000      -0.264394        -7.1945
 104   1.0000      -0.263952        -7.1825
 105   1.0000      -0.261077        -7.1043
 106   1.0000      -0.258785        -7.0419
 107   1.0000      -0.255449        -6.9511
 108   1.0000      -0.252523        -6.8715
 109   1.0000      -0.251995        -6.8571
 110   1.0000      -0.251555        -6.8452
 111   1.0000      -0.249302        -6.7839
 112   1.0000      -0.247587        -6.7372
 113   1.0000      -0.245327        -6.6757
 114   1.0000      -0.245260        -6.6739
 115   1.0000      -0.242350        -6.5947
 116   1.0000      -0.241777        -6.5791
 117   1.0000      -0.240420        -6.5422
 118   1.0000      -0.240297        -6.5388
 119   1.0000      -0.229114        -6.2345
 120   1.0000      -0.224948        -6.1211
 121   1.0000      -0.216396        -5.8884
 122   1.0000      -0.209470        -5.7000
 123   1.0000      -0.198889        -5.4120
 124   0.0000      -0.170815        -4.6481
 125   0.0000      -0.156912        -4.2698
 126   0.0000      -0.141785        -3.8582
 127   0.0000      -0.125164        -3.4059
 128   0.0000      -0.115148        -3.1333

MULLIKEN ATOMIC CHARGES AND SPIN POPULATIONS
--------------------------------------------
   0 Au:    0.302973    0.015731
   1 Au:    0.252390    0.009012
   2 Au:    0.415433    0.061560
   3 Au:    0.304385    0.015678
   4 Au:    0.253684    0.008803
   5 Au:    0.411142    0.147272
   6 Au:    0.303414    0.015792
   7 Au:    0.253282    0.008739
   8 Au:    0.411473    0.147315
   9 Au:    0.302119    0.015832
  10 Au:    0.252923    0.009330
  11 Au:   -0.232435    0.039299
  12 Cr:   -3.230783    3.505636
Sum of atomic charges         :   -0.0000000

LOEWDIN ATOMIC CHARGES AND SPIN POPULATIONS
-------------------------------------------
   0 Au:    0.105809    0.016842
   1 Au:    0.086886    0.032166
   2 Au:    0.080208    0.050301
   3 Au:    0.105834    0.016727
   4 Au:    0.086892    0.031893
   5 Au:    0.148780    0.101733
   6 Au:    0.105769    0.016787
   7 Au:    0.086646    0.031984
   8 Au:    0.148790    0.101730
   9 Au:    0.106043    0.016881
  10 Au:    0.087029    0.032359
  11 Au:   -0.062691    0.101129
  12 Cr:   -1.085997    3.449470

  Mayer bond orders larger than 0.100000
B(  0-Au,  1-Au) :   0.4963 B(  0-Au,  2-Au) :   0.2268 B(  0-Au,  3-Au) :   0.1509
B(  0-Au, 12-Cr) :   0.6481 B(  1-Au,  5-Au) :   0.2391 B(  1-Au, 10-Au) :   0.1231
B(  1-Au, 11-Au) :   0.1485 B(  1-Au, 12-Cr) :   0.6235 B(  2-Au,  3-Au) :   0.2261
B(  2-Au,  6-Au) :   0.2263 B(  2-Au,  9-Au) :   0.2263 B(  2-Au, 12-Cr) :   0.3433
B(  3-Au,  4-Au) :   0.4949 B(  3-Au, 12-Cr) :   0.6499 B(  4-Au,  7-Au) :   0.1241
B(  4-Au,  8-Au) :   0.2385 B(  4-Au, 11-Au) :   0.1490 B(  4-Au, 12-Cr) :   0.6228
B(  5-Au, 10-Au) :   0.2377 B(  5-Au, 11-Au) :   0.5577 B(  5-Au, 12-Cr) :   0.2320
B(  6-Au,  7-Au) :   0.4954 B(  6-Au,  9-Au) :   0.1509 B(  6-Au, 12-Cr) :   0.6504
B(  7-Au,  8-Au) :   0.2384 B(  7-Au, 11-Au) :   0.1510 B(  7-Au, 12-Cr) :   0.6208
B(  8-Au, 11-Au) :   0.5579 B(  8-Au, 12-Cr) :   0.2315 B(  9-Au, 10-Au) :   0.4960
B(  9-Au, 12-Cr) :   0.6495 B( 10-Au, 11-Au) :   0.1511 B( 10-Au, 12-Cr) :   0.6212
B( 11-Au, 12-Cr) :   0.2825

FINAL SINGLE POINT ENERGY     -2674.154906755415

DIPOLE MOMENT
-------------
                                X             Y             Z
Electronic contribution:      1.62376       9.75913     -12.09013
Nuclear contribution   :     -1.58572      -9.52374      11.80065
                        -----------------------------------------
Total Dipole Moment    :      0.03804       0.23539      -0.28948
                        -----------------------------------------
Magnitude (a.u.)       :      0.37504
Magnitude (Debye)      :      0.95327

Rotational constants in cm-1:     0.001507     0.001183     0.000929
Rotational constants in MHz :    45.183174    35.452744    27.855483

                             ****ORCA TERMINATED NORMALLY****
TOTAL RUN TIME: 0 days 8 hours 24 minutes 5 seconds 181 msec
