                         Program Version 5.0.3 -  RELEASE  -
|  1> !CASSCF def2-TZVP def2-TZVP/C
|  2> !MOREAD RIJCOSX
|  3> %maxcore 6000
|  4> %moinp "pbe.qro"
|  5> %pal nprocs 2 end
|  6>
|  7> %casscf
|  8>  mult 5,3
|  9>  bweight 1,1
| 10>  nroots 5,45
| 11>  nel 6
| 12>  norb 5
| 13> end
| 14>
| 15>
| 16> *xyzfile 0 5 pbe.xyz
| 17>
| 18>
| 19>                          ****END OF INPUT****

CARTESIAN COORDINATES (ANGSTROEM)
---------------------------------
  Au     9.741190    8.238994    6.270333
  Au     7.545962    9.825701    6.933221
  Au     8.541754    5.765737    5.435716
  Au     7.496282    8.223603    4.594513
  Au     5.809648    6.237407    5.717810
  Au     4.005638    7.178552    7.666584
  Au     5.096319    8.981834    5.773001
  Au     5.219948    9.687775    8.513038
  Au     7.207830    4.878069    7.719317
  Au     8.948944    8.472680    8.935510
  Au     9.817758    5.974230    7.918484
  Au     6.586838    8.366917   10.468694
  Au     5.370012    5.853834    9.620848
  Au     8.148206    6.027851   10.138840
  Fe     6.673655    7.492988    7.919773

 Total Charge           Charge          ....    0
 Multiplicity           Mult            ....    5
 Number of Electrons    NEL             ....  292
 Basis Dimension        Dim             ....  605

ORBITAL ENERGIES
----------------

  NO   OCC          E(Eh)            E(eV)
   0   2.0000    -261.286384     -7109.9640
   1   2.0000     -31.833723      -866.2396
   2   2.0000     -27.322103      -743.4722
   3   2.0000     -27.311607      -743.1866
   4   2.0000     -27.311104      -743.1729
   5   2.0000      -4.727890      -128.6524
   6   2.0000      -4.727877      -128.6521
   7   2.0000      -4.727694      -128.6471
   8   2.0000      -4.727681      -128.6467
   9   2.0000      -4.714128      -128.2779
  10   2.0000      -4.714127      -128.2779
  11   2.0000      -4.712511      -128.2339
  12   2.0000      -4.712366      -128.2300
  13   2.0000      -4.712208      -128.2257
  14   2.0000      -4.712065      -128.2218
  15   2.0000      -4.704441      -128.0144
  16   2.0000      -4.704346      -128.0118
  17   2.0000      -4.701803      -127.9426
  18   2.0000      -4.701673      -127.9390
  19   2.0000      -4.064295      -110.5951
  20   2.0000      -2.768365       -75.3310
  21   2.0000      -2.768268       -75.3284
  22   2.0000      -2.765673       -75.2578
  23   2.0000      -2.765553       -75.2545
  24   2.0000      -2.765443       -75.2515
  25   2.0000      -2.765303       -75.2477
  26   2.0000      -2.764504       -75.2260
  27   2.0000      -2.764487       -75.2255
  28   2.0000      -2.764459       -75.2247
  29   2.0000      -2.764431       -75.2240
  30   2.0000      -2.762111       -75.1609
  31   2.0000      -2.762055       -75.1593
  32   2.0000      -2.753005       -74.9131
  33   2.0000      -2.752249       -74.8925
  34   2.0000      -2.751912       -74.8833
  35   2.0000      -2.751778       -74.8797
  36   2.0000      -2.750315       -74.8399
  37   2.0000      -2.750263       -74.8385
  38   2.0000      -2.750045       -74.8325
  39   2.0000      -2.750021       -74.8319
  40   2.0000      -2.748270       -74.7842
  41   2.0000      -2.748066       -74.7787
  42   2.0000      -2.747770       -74.7706
  43   2.0000      -2.747471       -74.7625
  44   2.0000      -2.746994       -74.7495
  45   2.0000      -2.746922       -74.7476
  46   2.0000      -2.744947       -74.6938
  47   2.0000      -2.744841       -74.6909
  48   2.0000      -2.744063       -74.6697
  49   2.0000      -2.743886       -74.6649
  50   2.0000      -2.742597       -74.6299
  51   2.0000      -2.741760       -74.6071
  52   2.0000      -2.741390       -74.5970
  53   2.0000      -2.740273       -74.5666
  54   2.0000      -2.739792       -74.5535
  55   2.0000      -2.739710       -74.5513
  56   2.0000      -2.738006       -74.5049
  57   2.0000      -2.737373       -74.4877
  58   2.0000      -2.736380       -74.4607
  59   2.0000      -2.736282       -74.4580
  60   2.0000      -2.735202       -74.4286
  61   2.0000      -2.734352       -74.4055
  62   2.0000      -2.653022       -72.1924
  63   2.0000      -2.646816       -72.0235
  64   2.0000      -2.646082       -72.0035
  65   2.0000      -0.568143       -15.4600
  66   2.0000      -0.555481       -15.1154
  67   2.0000      -0.554396       -15.0859
  68   2.0000      -0.553276       -15.0554
  69   2.0000      -0.551958       -15.0195
  70   2.0000      -0.550743       -14.9865
  71   2.0000      -0.550054       -14.9677
  72   2.0000      -0.548389       -14.9224
  73   2.0000      -0.548227       -14.9180
  74   2.0000      -0.545501       -14.8438
  75   2.0000      -0.544554       -14.8181
  76   2.0000      -0.541147       -14.7254
  77   2.0000      -0.539983       -14.6937
  78   2.0000      -0.539308       -14.6753
  79   2.0000      -0.537479       -14.6256
  80   2.0000      -0.532715       -14.4959
  81   2.0000      -0.532490       -14.4898
  82   2.0000      -0.528817       -14.3899
  83   2.0000      -0.527961       -14.3666
  84   2.0000      -0.527348       -14.3499
  85   2.0000      -0.521606       -14.1936
  86   2.0000      -0.520855       -14.1732
  87   2.0000      -0.517174       -14.0730
  88   2.0000      -0.512947       -13.9580
  89   2.0000      -0.511600       -13.9213
  90   2.0000      -0.508720       -13.8430
  91   2.0000      -0.508629       -13.8405
  92   2.0000      -0.507804       -13.8181
  93   2.0000      -0.506019       -13.7695
  94   2.0000      -0.504759       -13.7352
  95   2.0000      -0.501961       -13.6591
  96   2.0000      -0.496078       -13.4990
  97   2.0000      -0.493257       -13.4222
  98   2.0000      -0.488410       -13.2903
  99   2.0000      -0.487633       -13.2692
 100   2.0000      -0.485935       -13.2230
 101   2.0000      -0.480633       -13.0787
 102   2.0000      -0.477160       -12.9842
 103   2.0000      -0.475454       -12.9378
 104   2.0000      -0.473958       -12.8971
 105   2.0000      -0.472856       -12.8671
 106   2.0000      -0.468958       -12.7610
 107   2.0000      -0.464409       -12.6372
 108   2.0000      -0.458414       -12.4741
 109   2.0000      -0.458357       -12.4725
 110   2.0000      -0.455105       -12.3840
 111   2.0000      -0.450168       -12.2497
 112   2.0000      -0.448898       -12.2151
 113   2.0000      -0.444320       -12.0906
 114   2.0000      -0.443688       -12.0734
 115   2.0000      -0.442540       -12.0421
 116   2.0000      -0.440073       -11.9750
 117   2.0000      -0.439949       -11.9716
 118   2.0000      -0.437851       -11.9145
 119   2.0000      -0.437440       -11.9034
 120   2.0000      -0.436051       -11.8656
 121   2.0000      -0.435080       -11.8391
 122   2.0000      -0.434848       -11.8328
 123   2.0000      -0.428946       -11.6722
 124   2.0000      -0.428726       -11.6662
 125   2.0000      -0.428319       -11.6552
 126   2.0000      -0.425352       -11.5744
 127   2.0000      -0.421690       -11.4748
 128   2.0000      -0.420564       -11.4441
 129   2.0000      -0.416110       -11.3229
 130   2.0000      -0.415968       -11.3191
 131   2.0000      -0.410909       -11.1814
 132   2.0000      -0.406728       -11.0676
 133   2.0000      -0.403896       -10.9906
 134   2.0000      -0.403503       -10.9799
 135   2.0000      -0.392026       -10.6676
 136   2.0000      -0.377534       -10.2732
 137   2.0000      -0.363891        -9.9020
 138   2.0000      -0.360319        -9.8048
 139   2.0000      -0.329341        -8.9618
 140   2.0000      -0.238825        -6.4987
 141   2.0000      -0.235084        -6.3970
 142   2.0000      -0.234498        -6.3810
 143   1.2000      -0.158924        -4.3245
 144   1.2000      -0.176363        -4.7991
 145   1.2000      -0.163856        -4.4587
 146   1.2000      -0.162292        -4.4162
 147   1.2000      -0.125745        -3.4217
 148   0.0000      -0.067168        -1.8277
 149   0.0000      -0.009403        -0.2559
 150   0.0000      -0.000800        -0.0218
 151   0.0000       0.004042         0.1100
 152   0.0000       0.014527         0.3953

MULLIKEN ATOMIC CHARGES AND SPIN DENSITIES
------------------------------------------
   0 Au:    0.084184    0.057392
   1 Au:    0.187055    0.061731
   2 Au:    0.080955    0.058106
   3 Au:    0.017283    0.040979
   4 Au:    0.189283    0.061185
   5 Au:    0.241130    0.029739
   6 Au:    0.092246    0.009620
   7 Au:    0.241802    0.030061
   8 Au:    0.193441    0.061185
   9 Au:    0.191918    0.061288
  10 Au:    0.016190    0.041496
  11 Au:    0.241778    0.029884
  12 Au:    0.241231    0.029474
  13 Au:    0.093459    0.009633
  14 Fe:   -2.111954    2.418228
Sum of atomic charges       :    0.0000000

LOEWDIN ATOMIC CHARGES AND SPIN DENSITIES
-----------------------------------------
   0 Au:   -0.015374    0.072212
   1 Au:    0.047602    0.046129
   2 Au:   -0.016380    0.072282
   3 Au:   -0.004345    0.045014
   4 Au:    0.047838    0.045920
   5 Au:    0.065882    0.045621
   6 Au:    0.048948    0.017082
   7 Au:    0.066255    0.045779
   8 Au:    0.049177    0.045976
   9 Au:    0.048558    0.046097
  10 Au:   -0.004597    0.045407
  11 Au:    0.066365    0.045616
  12 Au:    0.066283    0.045404
  13 Au:    0.048771    0.017064
  14 Fe:   -0.514984    2.364395

  Mayer bond orders larger than 0.100000
B(  0-Au,  1-Au) :   0.2632 B(  0-Au,  2-Au) :   0.1437 B(  0-Au,  3-Au) :   0.2269
B(  0-Au,  9-Au) :   0.2616 B(  0-Au, 10-Au) :   0.2266 B(  0-Au, 14-Fe) :   0.1545
B(  1-Au,  3-Au) :   0.1866 B(  1-Au,  6-Au) :   0.1506 B(  1-Au,  7-Au) :   0.1276
B(  1-Au,  9-Au) :   0.2642 B(  1-Au, 14-Fe) :   0.3098 B(  2-Au,  3-Au) :   0.2270
B(  2-Au,  4-Au) :   0.2635 B(  2-Au,  8-Au) :   0.2618 B(  2-Au, 10-Au) :   0.2273
B(  2-Au, 14-Fe) :   0.1559 B(  3-Au,  4-Au) :   0.1850 B(  3-Au,  6-Au) :   0.3125
B(  3-Au, 14-Fe) :   0.1660 B(  4-Au,  5-Au) :   0.1270 B(  4-Au,  6-Au) :   0.1518
B(  4-Au,  8-Au) :   0.2641 B(  4-Au, 14-Fe) :   0.3097 B(  5-Au,  6-Au) :   0.1823
B(  5-Au,  7-Au) :   0.1192 B(  5-Au, 12-Au) :   0.2652 B(  5-Au, 14-Fe) :   0.3555
B(  6-Au,  7-Au) :   0.1820 B(  6-Au, 14-Fe) :   0.2738 B(  7-Au, 11-Au) :   0.2652
B(  7-Au, 14-Fe) :   0.3555 B(  8-Au, 10-Au) :   0.1833 B(  8-Au, 12-Au) :   0.1271
B(  8-Au, 13-Au) :   0.1494 B(  8-Au, 14-Fe) :   0.3104 B(  9-Au, 10-Au) :   0.1862
B(  9-Au, 11-Au) :   0.1271 B(  9-Au, 13-Au) :   0.1496 B(  9-Au, 14-Fe) :   0.3097
B( 10-Au, 13-Au) :   0.3124 B( 10-Au, 14-Fe) :   0.1682 B( 11-Au, 12-Au) :   0.1174
B( 11-Au, 13-Au) :   0.1816 B( 11-Au, 14-Fe) :   0.3568 B( 12-Au, 13-Au) :   0.1819
B( 12-Au, 14-Fe) :   0.3564 B( 13-Au, 14-Fe) :   0.2764

FINAL SINGLE POINT ENERGY     -3149.585998100475

DIPOLE MOMENT
-------------
                                X             Y             Z
Electronic contribution:     16.25285      -3.16145     -13.76913
Nuclear contribution   :    -16.64912       3.24151      14.10135
                        -----------------------------------------
Total Dipole Moment    :     -0.39628       0.08006       0.33222
                        -----------------------------------------
Magnitude (a.u.)       :      0.52327
Magnitude (Debye)      :      1.33005

Rotational constants in cm-1:     0.001148     0.001111     0.000935
Rotational constants in MHz :    34.407841    33.315310    28.031694

                             ****ORCA TERMINATED NORMALLY****
TOTAL RUN TIME: 0 days 0 hours 57 minutes 32 seconds 893 msec
