                         Program Version 5.0.3 -  RELEASE  -
|  1> %pal nprocs 1 end
|  2>
|  3> !PBE def2-TZVP OPT UNO
|  4> !SLOWCONV KDIIS
|  5>
|  6> %geom maxiter 300 end
|  7>
|  8> *xyzfile 0 5 0.xyz                           ****END OF INPUT****
 Total Charge           Charge          ....    0
 Multiplicity           Mult            ....    5
 Number of Electrons    NEL             ....  328
FINAL SINGLE POINT ENERGY     -3217.506272759836   (Wavefunction not fully converged!)
FINAL SINGLE POINT ENERGY     -3217.510813398817
FINAL SINGLE POINT ENERGY     -3217.513120760789
FINAL SINGLE POINT ENERGY     -3217.513879283381
FINAL SINGLE POINT ENERGY     -3217.514479205780
FINAL SINGLE POINT ENERGY     -3217.515075196958
FINAL SINGLE POINT ENERGY     -3217.515576513467
FINAL SINGLE POINT ENERGY     -3217.516174992032
FINAL SINGLE POINT ENERGY     -3217.516803996095
FINAL SINGLE POINT ENERGY     -3217.517150408026
FINAL SINGLE POINT ENERGY     -3217.517393368540
FINAL SINGLE POINT ENERGY     -3217.517474385987
FINAL SINGLE POINT ENERGY     -3217.517542036377
FINAL SINGLE POINT ENERGY     -3217.517593784500
FINAL SINGLE POINT ENERGY     -3217.517616124989
FINAL SINGLE POINT ENERGY     -3217.517630207045
FINAL SINGLE POINT ENERGY     -3217.517637691394
FINAL SINGLE POINT ENERGY     -3217.517646736517
FINAL SINGLE POINT ENERGY     -3217.517648858006
                    ***********************HURRAY********************

CARTESIAN COORDINATES (ANGSTROEM)
---------------------------------
  Au     8.838456    5.771629    9.213403
  Au     8.102965   10.059260   10.859891
  Au     9.866398    7.874293   10.650702
  Au     5.896744    9.487084    9.211172
  Au     7.127936    7.421573   10.603354
  Au    11.047438    7.769148    8.138592
  Au    10.378822   10.214734    9.218069
  Au     7.915183   11.203530    8.303410
  Au     7.506641    4.979133    6.899189
  Au    10.285648    5.410416    6.856696
  Au     5.979364    6.955868    8.136614
  Au     6.318747    7.005525    5.361981
  Au     8.326327    8.728511    4.446853
  Au     6.635823    9.522442    6.530115
  Au    10.777813    7.717389    5.349004
  Au     9.672941    9.988095    6.541951
  Cr     8.509393    7.529626    7.001602

 Multiplicity           Mult            ....    5
 Number of Electrons    NEL             ....  328
 Basis Dimension        Dim             ....  685

ORBITAL ENERGIES
----------------
                 SPIN UP ORBITALS
  NO   OCC          E(Eh)            E(eV)
   0   1.0000    -214.487983     -5836.5147
   1   1.0000     -24.285644      -660.8460
   2   1.0000     -20.650741      -561.9352
   3   1.0000     -20.650685      -561.9337
   4   1.0000     -20.644530      -561.7662
   5   1.0000      -4.039306      -109.9151
   6   1.0000      -4.037089      -109.8548
   7   1.0000      -4.035112      -109.8010
   8   1.0000      -4.033144      -109.7474
   9   1.0000      -4.031872      -109.7128
  10   1.0000      -4.031427      -109.7007
  11   1.0000      -4.030906      -109.6865
  12   1.0000      -4.030254      -109.6688
  13   1.0000      -4.029362      -109.6445
  14   1.0000      -4.028908      -109.6322
  15   1.0000      -4.023472      -109.4842
  16   1.0000      -4.023417      -109.4827
  17   1.0000      -4.023255      -109.4783
  18   1.0000      -4.023158      -109.4757
  19   1.0000      -4.022785      -109.4656
  20   1.0000      -4.017315      -109.3167
  21   1.0000      -2.795994       -76.0829
  22   1.0000      -2.255879       -61.3856
  23   1.0000      -2.253843       -61.3302
  24   1.0000      -2.252148       -61.2841
  25   1.0000      -2.251339       -61.2620
  26   1.0000      -2.249797       -61.2201
  27   1.0000      -2.249459       -61.2109
  28   1.0000      -2.249223       -61.2045
  29   1.0000      -2.248737       -61.1912
  30   1.0000      -2.247401       -61.1549
  31   1.0000      -2.247177       -61.1488
  32   1.0000      -2.246816       -61.1390
  33   1.0000      -2.246438       -61.1287
  34   1.0000      -2.246057       -61.1183
  35   1.0000      -2.245526       -61.1039
  36   1.0000      -2.245505       -61.1033
  37   1.0000      -2.245383       -61.1000
  38   1.0000      -2.244438       -61.0743
  39   1.0000      -2.244116       -61.0655
  40   1.0000      -2.243349       -61.0446
  41   1.0000      -2.242942       -61.0335
  42   1.0000      -2.242599       -61.0242
  43   1.0000      -2.242343       -61.0173
  44   1.0000      -2.242235       -61.0143
  45   1.0000      -2.241880       -61.0047
  46   1.0000      -2.241548       -60.9956
  47   1.0000      -2.241159       -60.9850
  48   1.0000      -2.240936       -60.9790
  49   1.0000      -2.240783       -60.9748
  50   1.0000      -2.240080       -60.9557
  51   1.0000      -2.239977       -60.9529
  52   1.0000      -2.239739       -60.9464
  53   1.0000      -2.238880       -60.9230
  54   1.0000      -2.238697       -60.9181
  55   1.0000      -2.238667       -60.9172
  56   1.0000      -2.238066       -60.9009
  57   1.0000      -2.237520       -60.8860
  58   1.0000      -2.237449       -60.8841
  59   1.0000      -2.237249       -60.8786
  60   1.0000      -2.236685       -60.8633
  61   1.0000      -2.236396       -60.8554
  62   1.0000      -2.233406       -60.7741
  63   1.0000      -2.233131       -60.7666
  64   1.0000      -2.232789       -60.7573
  65   1.0000      -2.231296       -60.7166
  66   1.0000      -2.231221       -60.7146
  67   1.0000      -2.231068       -60.7104
  68   1.0000      -2.230829       -60.7039
  69   1.0000      -2.225509       -60.5592
  70   1.0000      -1.788953       -48.6799
  71   1.0000      -1.788891       -48.6782
  72   1.0000      -1.780448       -48.4485
  73   1.0000      -0.428642       -11.6639
  74   1.0000      -0.392648       -10.6845
  75   1.0000      -0.392229       -10.6731
  76   1.0000      -0.386515       -10.5176
  77   1.0000      -0.380269       -10.3476
  78   1.0000      -0.379458       -10.3256
  79   1.0000      -0.366674        -9.9777
  80   1.0000      -0.364015        -9.9053
  81   1.0000      -0.363678        -9.8962
  82   1.0000      -0.362592        -9.8666
  83   1.0000      -0.359291        -9.7768
  84   1.0000      -0.355644        -9.6776
  85   1.0000      -0.354754        -9.6534
  86   1.0000      -0.353689        -9.6244
  87   1.0000      -0.353127        -9.6091
  88   1.0000      -0.352420        -9.5898
  89   1.0000      -0.351167        -9.5557
  90   1.0000      -0.348762        -9.4903
  91   1.0000      -0.346669        -9.4333
  92   1.0000      -0.346562        -9.4304
  93   1.0000      -0.345895        -9.4123
  94   1.0000      -0.345280        -9.3955
  95   1.0000      -0.342238        -9.3128
  96   1.0000      -0.341001        -9.2791
  97   1.0000      -0.340106        -9.2548
  98   1.0000      -0.338636        -9.2148
  99   1.0000      -0.335769        -9.1367
 100   1.0000      -0.329551        -8.9675
 101   1.0000      -0.328618        -8.9421
 102   1.0000      -0.328241        -8.9319
 103   1.0000      -0.327946        -8.9239
 104   1.0000      -0.325869        -8.8674
 105   1.0000      -0.325407        -8.8548
 106   1.0000      -0.325337        -8.8529
 107   1.0000      -0.316677        -8.6172
 108   1.0000      -0.314049        -8.5457
 109   1.0000      -0.313942        -8.5428
 110   1.0000      -0.309116        -8.4115
 111   1.0000      -0.308265        -8.3883
 112   1.0000      -0.306771        -8.3477
 113   1.0000      -0.305820        -8.3218
 114   1.0000      -0.299015        -8.1366
 115   1.0000      -0.295674        -8.0457
 116   1.0000      -0.293332        -7.9820
 117   1.0000      -0.288489        -7.8502
 118   1.0000      -0.287765        -7.8305
 119   1.0000      -0.286794        -7.8041
 120   1.0000      -0.283105        -7.7037
 121   1.0000      -0.282208        -7.6793
 122   1.0000      -0.281645        -7.6640
 123   1.0000      -0.279101        -7.5947
 124   1.0000      -0.277990        -7.5645
 125   1.0000      -0.277717        -7.5571
 126   1.0000      -0.276261        -7.5174
 127   1.0000      -0.274423        -7.4674
 128   1.0000      -0.273996        -7.4558
 129   1.0000      -0.273764        -7.4495
 130   1.0000      -0.272459        -7.4140
 131   1.0000      -0.271026        -7.3750
 132   1.0000      -0.269159        -7.3242
 133   1.0000      -0.269073        -7.3218
 134   1.0000      -0.268298        -7.3008
 135   1.0000      -0.266525        -7.2525
 136   1.0000      -0.264067        -7.1856
 137   1.0000      -0.263766        -7.1774
 138   1.0000      -0.263310        -7.1650
 139   1.0000      -0.262841        -7.1523
 140   1.0000      -0.259728        -7.0676
 141   1.0000      -0.259481        -7.0608
 142   1.0000      -0.258339        -7.0298
 143   1.0000      -0.254637        -6.9290
 144   1.0000      -0.253824        -6.9069
 145   1.0000      -0.252406        -6.8683
 146   1.0000      -0.251636        -6.8474
 147   1.0000      -0.250916        -6.8278
 148   1.0000      -0.250717        -6.8224
 149   1.0000      -0.250339        -6.8121
 150   1.0000      -0.249885        -6.7997
 151   1.0000      -0.243162        -6.6168
 152   1.0000      -0.242219        -6.5911
 153   1.0000      -0.241845        -6.5809
 154   1.0000      -0.241466        -6.5706
 155   1.0000      -0.241120        -6.5612
 156   1.0000      -0.227761        -6.1977
 157   1.0000      -0.227110        -6.1800
 158   1.0000      -0.226532        -6.1643
 159   1.0000      -0.226149        -6.1538
 160   1.0000      -0.220601        -6.0028
 161   1.0000      -0.213949        -5.8218
 162   1.0000      -0.206174        -5.6103
 163   1.0000      -0.197087        -5.3630
 164   1.0000      -0.197039        -5.3617
 165   1.0000      -0.192081        -5.2268
 166   0.0000      -0.182789        -4.9739
 167   0.0000      -0.147003        -4.0002
 168   0.0000      -0.143775        -3.9123
 169   0.0000      -0.140795        -3.8312
 170   0.0000      -0.136485        -3.7139

                 SPIN DOWN ORBITALS
  NO   OCC          E(Eh)            E(eV)
   0   1.0000    -214.487564     -5836.5033
   1   1.0000     -24.236016      -659.4955
   2   1.0000     -20.614887      -560.9596
   3   1.0000     -20.614791      -560.9570
   4   1.0000     -20.602569      -560.6244
   5   1.0000      -4.038948      -109.9054
   6   1.0000      -4.036580      -109.8409
   7   1.0000      -4.034492      -109.7841
   8   1.0000      -4.032724      -109.7360
   9   1.0000      -4.031357      -109.6988
  10   1.0000      -4.030669      -109.6801
  11   1.0000      -4.030312      -109.6704
  12   1.0000      -4.029464      -109.6473
  13   1.0000      -4.028635      -109.6247
  14   1.0000      -4.028155      -109.6117
  15   1.0000      -4.023338      -109.4806
  16   1.0000      -4.023268      -109.4787
  17   1.0000      -4.023122      -109.4747
  18   1.0000      -4.022991      -109.4712
  19   1.0000      -4.022664      -109.4622
  20   1.0000      -4.017204      -109.3137
  21   1.0000      -2.661651       -72.4272
  22   1.0000      -2.255449       -61.3739
  23   1.0000      -2.253236       -61.3137
  24   1.0000      -2.251428       -61.2645
  25   1.0000      -2.250924       -61.2508
  26   1.0000      -2.249112       -61.2014
  27   1.0000      -2.249096       -61.2010
  28   1.0000      -2.248524       -61.1854
  29   1.0000      -2.248123       -61.1745
  30   1.0000      -2.247005       -61.1441
  31   1.0000      -2.246534       -61.1313
  32   1.0000      -2.246212       -61.1225
  33   1.0000      -2.245658       -61.1075
  34   1.0000      -2.245392       -61.1002
  35   1.0000      -2.245041       -61.0907
  36   1.0000      -2.244955       -61.0883
  37   1.0000      -2.244700       -61.0814
  38   1.0000      -2.243945       -61.0608
  39   1.0000      -2.243408       -61.0462
  40   1.0000      -2.242745       -61.0282
  41   1.0000      -2.242184       -61.0129
  42   1.0000      -2.241859       -61.0041
  43   1.0000      -2.241730       -61.0006
  44   1.0000      -2.241425       -60.9923
  45   1.0000      -2.241276       -60.9882
  46   1.0000      -2.241030       -60.9815
  47   1.0000      -2.240516       -60.9675
  48   1.0000      -2.240334       -60.9626
  49   1.0000      -2.240170       -60.9581
  50   1.0000      -2.239853       -60.9495
  51   1.0000      -2.239507       -60.9401
  52   1.0000      -2.238878       -60.9230
  53   1.0000      -2.238515       -60.9131
  54   1.0000      -2.238472       -60.9119
  55   1.0000      -2.237936       -60.8973
  56   1.0000      -2.237856       -60.8951
  57   1.0000      -2.237312       -60.8804
  58   1.0000      -2.237211       -60.8776
  59   1.0000      -2.237038       -60.8729
  60   1.0000      -2.236525       -60.8589
  61   1.0000      -2.236247       -60.8514
  62   1.0000      -2.233287       -60.7708
  63   1.0000      -2.233019       -60.7635
  64   1.0000      -2.232674       -60.7542
  65   1.0000      -2.231179       -60.7135
  66   1.0000      -2.231093       -60.7111
  67   1.0000      -2.230941       -60.7070
  68   1.0000      -2.230725       -60.7011
  69   1.0000      -2.225395       -60.5561
  70   1.0000      -1.663346       -45.2619
  71   1.0000      -1.663133       -45.2562
  72   1.0000      -1.634251       -44.4702
  73   1.0000      -0.422515       -11.4972
  74   1.0000      -0.391357       -10.6494
  75   1.0000      -0.390955       -10.6384
  76   1.0000      -0.383299       -10.4301
  77   1.0000      -0.377542       -10.2734
  78   1.0000      -0.376838       -10.2543
  79   1.0000      -0.365011        -9.9324
  80   1.0000      -0.362625        -9.8675
  81   1.0000      -0.362171        -9.8552
  82   1.0000      -0.361083        -9.8256
  83   1.0000      -0.357860        -9.7379
  84   1.0000      -0.355011        -9.6603
  85   1.0000      -0.352425        -9.5900
  86   1.0000      -0.351625        -9.5682
  87   1.0000      -0.351258        -9.5582
  88   1.0000      -0.350627        -9.5410
  89   1.0000      -0.349073        -9.4988
  90   1.0000      -0.348409        -9.4807
  91   1.0000      -0.346050        -9.4165
  92   1.0000      -0.345860        -9.4113
  93   1.0000      -0.345618        -9.4048
  94   1.0000      -0.344291        -9.3686
  95   1.0000      -0.341874        -9.3029
  96   1.0000      -0.340562        -9.2672
  97   1.0000      -0.339700        -9.2437
  98   1.0000      -0.338279        -9.2050
  99   1.0000      -0.332146        -9.0381
 100   1.0000      -0.329060        -8.9542
 101   1.0000      -0.327947        -8.9239
 102   1.0000      -0.327448        -8.9103
 103   1.0000      -0.327305        -8.9064
 104   1.0000      -0.325378        -8.8540
 105   1.0000      -0.325016        -8.8441
 106   1.0000      -0.324829        -8.8390
 107   1.0000      -0.315797        -8.5933
 108   1.0000      -0.310499        -8.4491
 109   1.0000      -0.310020        -8.4361
 110   1.0000      -0.307576        -8.3696
 111   1.0000      -0.306652        -8.3444
 112   1.0000      -0.305025        -8.3002
 113   1.0000      -0.304012        -8.2726
 114   1.0000      -0.297843        -8.1047
 115   1.0000      -0.293921        -7.9980
 116   1.0000      -0.289716        -7.8836
 117   1.0000      -0.288236        -7.8433
 118   1.0000      -0.287199        -7.8151
 119   1.0000      -0.286204        -7.7880
 120   1.0000      -0.282108        -7.6765
 121   1.0000      -0.280739        -7.6393
 122   1.0000      -0.279721        -7.6116
 123   1.0000      -0.278525        -7.5791
 124   1.0000      -0.277565        -7.5529
 125   1.0000      -0.277186        -7.5426
 126   1.0000      -0.275455        -7.4955
 127   1.0000      -0.273764        -7.4495
 128   1.0000      -0.273310        -7.4371
 129   1.0000      -0.272313        -7.4100
 130   1.0000      -0.271731        -7.3942
 131   1.0000      -0.270450        -7.3593
 132   1.0000      -0.268589        -7.3087
 133   1.0000      -0.268158        -7.2970
 134   1.0000      -0.267782        -7.2867
 135   1.0000      -0.266094        -7.2408
 136   1.0000      -0.263509        -7.1704
 137   1.0000      -0.263310        -7.1650
 138   1.0000      -0.262976        -7.1559
 139   1.0000      -0.262263        -7.1365
 140   1.0000      -0.259318        -7.0564
 141   1.0000      -0.258914        -7.0454
 142   1.0000      -0.257915        -7.0182
 143   1.0000      -0.253998        -6.9116
 144   1.0000      -0.253522        -6.8987
 145   1.0000      -0.251820        -6.8524
 146   1.0000      -0.251044        -6.8312
 147   1.0000      -0.250621        -6.8198
 148   1.0000      -0.250286        -6.8106
 149   1.0000      -0.250000        -6.8028
 150   1.0000      -0.249530        -6.7900
 151   1.0000      -0.242897        -6.6096
 152   1.0000      -0.241650        -6.5756
 153   1.0000      -0.241344        -6.5673
 154   1.0000      -0.241086        -6.5603
 155   1.0000      -0.240469        -6.5435
 156   1.0000      -0.226105        -6.1526
 157   1.0000      -0.225082        -6.1248
 158   1.0000      -0.224426        -6.1069
 159   1.0000      -0.214193        -5.8285
 160   1.0000      -0.213086        -5.7984
 161   1.0000      -0.209735        -5.7072
 162   0.0000      -0.149506        -4.0683
 163   0.0000      -0.148410        -4.0385
 164   0.0000      -0.143742        -3.9114
 165   0.0000      -0.142906        -3.8887
 166   0.0000      -0.137202        -3.7335

MULLIKEN ATOMIC CHARGES AND SPIN POPULATIONS
--------------------------------------------
   0 Au:    0.156079    0.077264
   1 Au:    0.036310    0.028245
   2 Au:    0.216214    0.016618
   3 Au:    0.225557    0.026708
   4 Au:    0.201844    0.006807
   5 Au:    0.127562    0.027138
   6 Au:    0.224706    0.044960
   7 Au:    0.217051    0.051908
   8 Au:    0.513190    0.000448
   9 Au:    0.518047    0.010030
  10 Au:    0.149024    0.066619
  11 Au:    0.516258    0.017753
  12 Au:    0.514963    0.035607
  13 Au:    0.115478    0.002527
  14 Au:    0.512028    0.031697
  15 Au:    0.108576   -0.024794
  16 Cr:   -4.352886    3.580463
Sum of atomic charges         :   -0.0000000

LOEWDIN ATOMIC CHARGES AND SPIN POPULATIONS
-------------------------------------------
   0 Au:    0.041562    0.033267
   1 Au:    0.000795    0.035267
   2 Au:    0.036390    0.022529
   3 Au:    0.039360    0.023455
   4 Au:    0.032415    0.021979
   5 Au:    0.044817    0.014663
   6 Au:    0.041035    0.024329
   7 Au:    0.040137    0.024871
   8 Au:    0.146630   -0.007772
   9 Au:    0.146100   -0.000704
  10 Au:    0.042441    0.029321
  11 Au:    0.145392    0.004732
  12 Au:    0.141116    0.016811
  13 Au:    0.045271    0.005191
  14 Au:    0.142652    0.014435
  15 Au:    0.047185   -0.006777
  16 Cr:   -1.133299    3.744405

  Mayer bond orders larger than 0.100000
B(  0-Au,  2-Au) :   0.2732 B(  0-Au,  4-Au) :   0.2478 B(  0-Au,  8-Au) :   0.2055
B(  0-Au,  9-Au) :   0.2058 B(  0-Au, 16-Cr) :   0.5263 B(  1-Au,  2-Au) :   0.3068
B(  1-Au,  3-Au) :   0.3057 B(  1-Au,  4-Au) :   0.3029 B(  1-Au,  6-Au) :   0.3037
B(  1-Au,  7-Au) :   0.3055 B(  1-Au, 16-Cr) :   0.1246 B(  2-Au,  4-Au) :   0.2392
B(  2-Au,  5-Au) :   0.2254 B(  2-Au,  6-Au) :   0.2133 B(  2-Au, 16-Cr) :   0.3072
B(  3-Au,  4-Au) :   0.2326 B(  3-Au,  7-Au) :   0.2034 B(  3-Au, 10-Au) :   0.2805
B(  3-Au, 13-Au) :   0.2289 B(  3-Au, 16-Cr) :   0.3046 B(  4-Au, 10-Au) :   0.2355
B(  4-Au, 16-Cr) :   0.3106 B(  5-Au,  6-Au) :   0.2789 B(  5-Au,  9-Au) :   0.2147
B(  5-Au, 11-Au) :   0.1052 B(  5-Au, 14-Au) :   0.2117 B(  5-Au, 15-Au) :   0.1391
B(  5-Au, 16-Cr) :   0.5581 B(  6-Au,  7-Au) :   0.1953 B(  6-Au, 15-Au) :   0.2381
B(  6-Au, 16-Cr) :   0.3072 B(  7-Au, 13-Au) :   0.2687 B(  7-Au, 15-Au) :   0.2457
B(  7-Au, 16-Cr) :   0.3118 B(  8-Au,  9-Au) :   0.2540 B(  8-Au, 10-Au) :   0.2070
B(  8-Au, 11-Au) :   0.2560 B(  8-Au, 15-Au) :   0.1111 B(  8-Au, 16-Cr) :   0.4982
B(  9-Au, 13-Au) :   0.1077 B(  9-Au, 14-Au) :   0.2575 B(  9-Au, 16-Cr) :   0.4582
B( 10-Au, 11-Au) :   0.2066 B( 10-Au, 13-Au) :   0.1167 B( 10-Au, 16-Cr) :   0.5306
B( 11-Au, 12-Au) :   0.2575 B( 11-Au, 13-Au) :   0.2180 B( 11-Au, 16-Cr) :   0.4328
B( 12-Au, 13-Au) :   0.2178 B( 12-Au, 14-Au) :   0.2593 B( 12-Au, 15-Au) :   0.2242
B( 12-Au, 16-Cr) :   0.3834 B( 13-Au, 15-Au) :   0.1420 B( 13-Au, 16-Cr) :   0.5792
B( 14-Au, 15-Au) :   0.2233 B( 14-Au, 16-Cr) :   0.3964 B( 15-Au, 16-Cr) :   0.6067

FINAL SINGLE POINT ENERGY     -3217.517650606939

DIPOLE MOMENT
-------------
                                X             Y             Z
Electronic contribution:     -3.15146      20.92140      30.83291
Nuclear contribution   :      3.24916     -21.25161     -31.53207
                        -----------------------------------------
Total Dipole Moment    :      0.09770      -0.33021      -0.69916
                        -----------------------------------------
Magnitude (a.u.)       :      0.77937
Magnitude (Debye)      :      1.98099

Rotational constants in cm-1:     0.000929     0.000766     0.000763
Rotational constants in MHz :    27.840366    22.968478    22.886918

                             ****ORCA TERMINATED NORMALLY****
TOTAL RUN TIME: 0 days 9 hours 50 minutes 8 seconds 28 msec
