                         Program Version 5.0.3 -  RELEASE  -
|  1> !SC-NEVPT2 def2-TZVP def2-TZVP/C
|  2> !MOREAD RIJCOSX def2/J
|  3> %maxcore 4000
|  4> %moinp "casscf.gbw"
|  5> %pal nprocs 6 end
|  6>
|  7> %casscf
|  8>  mult 6,4
|  9>  bweight 1,1
| 10>  nroots 1,24
| 11>  nel 5
| 12>  norb 5
| 13>  ptsettings
| 14>   d4tpre 1e-14 # default = 1e-10
| 15>   d3tpre 1e-14
| 16>  end
| 17>  rel
| 18>    dosoc true
| 19>    gtensor true
| 20>  end
| 21> end
| 22>
| 23>
| 24> *xyzfile 0 6 pbe.xyz
| 25>
| 26>
| 27>                          ****END OF INPUT****

CARTESIAN COORDINATES (ANGSTROEM)
---------------------------------
  Au     7.908891   10.065262    9.161958
  Au    12.266237    8.369350    7.299101
  Au     9.487389    8.197333   10.396562
  Au    10.754691    6.497303    8.640006
  Au    10.418007    6.883614    5.802061
  Au    10.766519   10.244288    5.980624
  Au     7.877911    6.731080    8.629803
  Au     6.227380    9.198150    4.722500
  Au     6.146418    8.692319    7.464425
  Au     8.023547   10.575640    6.412902
  Au     8.969132    8.863856    4.325148
  Au     7.678401    6.991274    5.905495
  Mn     9.446037    8.591673    7.580658

 Total Charge           Charge          ....    0
 Multiplicity           Mult            ....    6
 Number of Electrons    NEL             ....  253
 Basis Dimension        Dim             ....  525

ORBITAL ENERGIES
----------------

  NO   OCC          E(Eh)            E(eV)
   0   2.0000    -240.553891     -6545.8041
   1   2.0000     -29.130226      -792.6738
   2   2.0000     -24.835390      -675.8053
   3   2.0000     -24.835049      -675.7960
   4   2.0000     -24.834522      -675.7817
   5   2.0000      -4.731412      -128.7483
   6   2.0000      -4.724164      -128.5510
   7   2.0000      -4.716743      -128.3491
   8   2.0000      -4.712877      -128.2439
   9   2.0000      -4.712863      -128.2435
  10   2.0000      -4.711957      -128.2189
  11   2.0000      -4.711938      -128.2184
  12   2.0000      -4.709340      -128.1477
  13   2.0000      -4.709315      -128.1470
  14   2.0000      -4.708329      -128.1201
  15   2.0000      -4.708289      -128.1191
  16   2.0000      -4.698676      -127.8575
  17   2.0000      -3.836321      -104.3916
  18   2.0000      -2.770513       -75.3895
  19   2.0000      -2.767974       -75.3204
  20   2.0000      -2.767910       -75.3187
  21   2.0000      -2.763916       -75.2100
  22   2.0000      -2.760999       -75.1306
  23   2.0000      -2.758907       -75.0737
  24   2.0000      -2.755554       -74.9824
  25   2.0000      -2.755116       -74.9705
  26   2.0000      -2.753341       -74.9222
  27   2.0000      -2.752012       -74.8860
  28   2.0000      -2.751918       -74.8835
  29   2.0000      -2.749596       -74.8203
  30   2.0000      -2.749216       -74.8100
  31   2.0000      -2.748910       -74.8017
  32   2.0000      -2.748692       -74.7957
  33   2.0000      -2.747684       -74.7683
  34   2.0000      -2.747471       -74.7625
  35   2.0000      -2.747066       -74.7515
  36   2.0000      -2.746922       -74.7476
  37   2.0000      -2.746156       -74.7267
  38   2.0000      -2.746091       -74.7249
  39   2.0000      -2.745187       -74.7003
  40   2.0000      -2.745096       -74.6979
  41   2.0000      -2.744778       -74.6892
  42   2.0000      -2.744739       -74.6881
  43   2.0000      -2.743460       -74.6533
  44   2.0000      -2.743355       -74.6505
  45   2.0000      -2.742447       -74.6258
  46   2.0000      -2.742345       -74.6230
  47   2.0000      -2.741701       -74.6055
  48   2.0000      -2.741672       -74.6047
  49   2.0000      -2.739890       -74.5562
  50   2.0000      -2.739866       -74.5555
  51   2.0000      -2.735680       -74.4416
  52   2.0000      -2.733469       -74.3815
  53   2.0000      -2.733210       -74.3744
  54   2.0000      -2.505193       -68.1698
  55   2.0000      -2.503892       -68.1344
  56   2.0000      -2.503840       -68.1329
  57   2.0000      -0.575442       -15.6586
  58   2.0000      -0.556669       -15.1477
  59   2.0000      -0.556455       -15.1419
  60   2.0000      -0.550744       -14.9865
  61   2.0000      -0.545905       -14.8548
  62   2.0000      -0.544788       -14.8244
  63   2.0000      -0.543439       -14.7877
  64   2.0000      -0.540388       -14.7047
  65   2.0000      -0.539698       -14.6859
  66   2.0000      -0.535952       -14.5840
  67   2.0000      -0.535317       -14.5667
  68   2.0000      -0.533383       -14.5141
  69   2.0000      -0.532788       -14.4979
  70   2.0000      -0.530204       -14.4276
  71   2.0000      -0.525467       -14.2987
  72   2.0000      -0.523756       -14.2521
  73   2.0000      -0.521705       -14.1963
  74   2.0000      -0.517791       -14.0898
  75   2.0000      -0.514775       -14.0077
  76   2.0000      -0.512534       -13.9468
  77   2.0000      -0.509634       -13.8679
  78   2.0000      -0.509247       -13.8573
  79   2.0000      -0.505654       -13.7595
  80   2.0000      -0.504216       -13.7204
  81   2.0000      -0.501273       -13.6403
  82   2.0000      -0.493004       -13.4153
  83   2.0000      -0.491790       -13.3823
  84   2.0000      -0.487851       -13.2751
  85   2.0000      -0.487341       -13.2612
  86   2.0000      -0.481782       -13.1099
  87   2.0000      -0.475280       -12.9330
  88   2.0000      -0.473455       -12.8834
  89   2.0000      -0.469862       -12.7856
  90   2.0000      -0.465552       -12.6683
  91   2.0000      -0.460757       -12.5378
  92   2.0000      -0.459777       -12.5112
  93   2.0000      -0.456766       -12.4292
  94   2.0000      -0.455753       -12.4017
  95   2.0000      -0.455679       -12.3997
  96   2.0000      -0.454172       -12.3587
  97   2.0000      -0.452268       -12.3068
  98   2.0000      -0.451326       -12.2812
  99   2.0000      -0.449291       -12.2258
 100   2.0000      -0.443769       -12.0756
 101   2.0000      -0.443158       -12.0589
 102   2.0000      -0.442676       -12.0458
 103   2.0000      -0.441298       -12.0083
 104   2.0000      -0.436576       -11.8798
 105   2.0000      -0.436111       -11.8672
 106   2.0000      -0.435225       -11.8431
 107   2.0000      -0.433882       -11.8065
 108   2.0000      -0.427344       -11.6286
 109   2.0000      -0.427124       -11.6226
 110   2.0000      -0.426331       -11.6011
 111   2.0000      -0.422140       -11.4870
 112   2.0000      -0.419082       -11.4038
 113   2.0000      -0.418311       -11.3828
 114   2.0000      -0.414980       -11.2922
 115   2.0000      -0.410263       -11.1638
 116   2.0000      -0.408804       -11.1241
 117   2.0000      -0.389790       -10.6067
 118   2.0000      -0.361635        -9.8406
 119   2.0000      -0.351619        -9.5680
 120   2.0000      -0.304805        -8.2942
 121   2.0000      -0.241139        -6.5617
 122   2.0000      -0.237821        -6.4714
 123   2.0000      -0.220219        -5.9925
 124   1.0000      -0.156642        -4.2624
 125   1.0000      -0.153295        -4.1714
 126   1.0000      -0.157569        -4.2877
 127   1.0000      -0.142038        -3.8651
 128   1.0000      -0.155644        -4.2353
 129   0.0000      -0.052968        -1.4413
 130   0.0000      -0.018517        -0.5039
 131   0.0000      -0.000029        -0.0008
 132   0.0000       0.007650         0.2082
 133   0.0000       0.008057         0.2192

MULLIKEN ATOMIC CHARGES AND SPIN DENSITIES
------------------------------------------
   0 Au:    0.056002    0.015061
   1 Au:    0.302649    0.008105
   2 Au:    0.301604    0.008101
   3 Au:    0.323207    0.008163
   4 Au:   -0.003061    0.014082
   5 Au:    0.055497    0.015074
   6 Au:   -0.002847    0.014101
   7 Au:    0.128297    0.004223
   8 Au:    0.182481    0.005148
   9 Au:    0.199053    0.007818
  10 Au:    0.182591    0.005148
  11 Au:    0.028521    0.005380
  12 Mn:   -1.753992    3.889597
Sum of atomic charges       :    0.0000000

LOEWDIN ATOMIC CHARGES AND SPIN DENSITIES
-----------------------------------------
   0 Au:    0.039913    0.018775
   1 Au:    0.089473    0.011255
   2 Au:    0.089766    0.011244
   3 Au:    0.036503    0.012393
   4 Au:   -0.021769    0.017535
   5 Au:    0.040182    0.018786
   6 Au:   -0.021893    0.017559
   7 Au:    0.093162    0.004346
   8 Au:   -0.024599    0.007175
   9 Au:   -0.035859    0.013930
  10 Au:   -0.024077    0.007176
  11 Au:   -0.067680    0.009436
  12 Mn:   -0.193122    3.850387

  Mayer bond orders larger than 0.100000
B(  0-Au,  2-Au) :   0.1392 B(  0-Au,  8-Au) :   0.1506 B(  0-Au,  9-Au) :   0.1910
B(  0-Au, 12-Mn) :   0.5362 B(  1-Au,  3-Au) :   0.2865 B(  1-Au,  4-Au) :   0.1807
B(  1-Au,  5-Au) :   0.1397 B(  1-Au, 12-Mn) :   0.3580 B(  2-Au,  3-Au) :   0.2867
B(  2-Au,  6-Au) :   0.1812 B(  2-Au, 12-Mn) :   0.3577 B(  3-Au,  4-Au) :   0.1172
B(  3-Au,  6-Au) :   0.1163 B(  3-Au, 12-Mn) :   0.3609 B(  4-Au, 10-Au) :   0.2365
B(  4-Au, 11-Au) :   0.3397 B(  4-Au, 12-Mn) :   0.5238 B(  5-Au,  9-Au) :   0.1902
B(  5-Au, 10-Au) :   0.1502 B(  5-Au, 12-Mn) :   0.5361 B(  6-Au,  8-Au) :   0.2363
B(  6-Au, 11-Au) :   0.3406 B(  6-Au, 12-Mn) :   0.5244 B(  7-Au,  8-Au) :   0.2542
B(  7-Au,  9-Au) :   0.3711 B(  7-Au, 10-Au) :   0.2535 B(  7-Au, 11-Au) :   0.1861
B(  8-Au,  9-Au) :   0.2104 B(  8-Au, 11-Au) :   0.2599 B(  8-Au, 12-Mn) :   0.2332
B(  9-Au, 10-Au) :   0.2098 B(  9-Au, 12-Mn) :   0.2952 B( 10-Au, 11-Au) :   0.2598
B( 10-Au, 12-Mn) :   0.2339 B( 11-Au, 12-Mn) :   0.2327

FINAL SINGLE POINT ENERGY     -2773.491397734400

DIPOLE MOMENT
-------------
                                X             Y             Z
Electronic contribution:    -20.35347      -5.30986     -18.56426
Nuclear contribution   :     20.70141       5.42890      18.88043
                        -----------------------------------------
Total Dipole Moment    :      0.34794       0.11904       0.31617
                        -----------------------------------------
Magnitude (a.u.)       :      0.48497
Magnitude (Debye)      :      1.23270

Rotational constants in cm-1:     0.001587     0.001281     0.001058
Rotational constants in MHz :    47.579622    38.399301    31.723322

                             ****ORCA TERMINATED NORMALLY****
TOTAL RUN TIME: 0 days 1 hours 9 minutes 46 seconds 793 msec
