                         Program Version 5.0.3 -  RELEASE  -
|  1> %pal nprocs 1 end
|  2>
|  3> !PBE def2-TZVP OPT UNO
|  4> !SLOWCONV KDIIS
|  5>
|  6> %geom maxiter 300 end
|  7>
|  8> *xyzfile 0 6 2.xyz                           ****END OF INPUT****
 Total Charge           Charge          ....    0
 Multiplicity           Mult            ....    6
 Number of Electrons    NEL             ....  329
FINAL SINGLE POINT ENERGY     -3324.030987096551
FINAL SINGLE POINT ENERGY     -3324.035356168628
FINAL SINGLE POINT ENERGY     -3324.038137792185
FINAL SINGLE POINT ENERGY     -3324.039389197225
FINAL SINGLE POINT ENERGY     -3324.040333355066
FINAL SINGLE POINT ENERGY     -3324.041276604270
FINAL SINGLE POINT ENERGY     -3324.042235120424
FINAL SINGLE POINT ENERGY     -3324.043001308193
FINAL SINGLE POINT ENERGY     -3324.043561268917
FINAL SINGLE POINT ENERGY     -3324.043932251621
FINAL SINGLE POINT ENERGY     -3324.044125743092
FINAL SINGLE POINT ENERGY     -3324.044210129962
FINAL SINGLE POINT ENERGY     -3324.044277207797
FINAL SINGLE POINT ENERGY     -3324.044291473789
FINAL SINGLE POINT ENERGY     -3324.044304203355
FINAL SINGLE POINT ENERGY     -3324.044311000219
FINAL SINGLE POINT ENERGY     -3324.044317576752
FINAL SINGLE POINT ENERGY     -3324.044323995474
FINAL SINGLE POINT ENERGY     -3324.044327812525
                    ***********************HURRAY********************

CARTESIAN COORDINATES (ANGSTROEM)
---------------------------------
  Au     7.083788    5.157059    6.450680
  Au     5.692239    5.972469    8.700247
  Au     7.376599    7.939765   10.143253
  Au     9.724622    8.247929    8.712807
  Au     9.172443   10.053047    6.684847
  Au     8.134687   10.533115    9.264112
  Au     8.866438    7.327652    6.185253
  Au     4.673203    7.635696   10.664003
  Au     5.460162    9.992867    9.446571
  Au     3.820993   10.804016    7.330966
  Au     3.841824    8.106071    8.065801
  Au     4.921930    8.973209    5.594891
  Au     4.487359    6.264933    6.148380
  Au     7.426942    9.704173    4.614167
  Au     6.552371   10.879947    6.986479
  Au     6.638301    7.093039    4.521439
  Mn     8.326718    6.069170    8.537417

 Multiplicity           Mult            ....    6
 Number of Electrons    NEL             ....  329
 Basis Dimension        Dim             ....  685

ORBITAL ENERGIES
----------------
                 SPIN UP ORBITALS
  NO   OCC          E(Eh)            E(eV)
   0   1.0000    -234.220516     -6373.4643
   1   1.0000     -26.919582      -732.5191
   2   1.0000     -23.068475      -627.7251
   3   1.0000     -23.067203      -627.6905
   4   1.0000     -23.066820      -627.6801
   5   1.0000      -4.037708      -109.8716
   6   1.0000      -4.037677      -109.8708
   7   1.0000      -4.036589      -109.8412
   8   1.0000      -4.036521      -109.8393
   9   1.0000      -4.029933      -109.6601
  10   1.0000      -4.026112      -109.5561
  11   1.0000      -4.026016      -109.5535
  12   1.0000      -4.025994      -109.5529
  13   1.0000      -4.025887      -109.5500
  14   1.0000      -4.025474      -109.5387
  15   1.0000      -4.023717      -109.4909
  16   1.0000      -4.023712      -109.4908
  17   1.0000      -4.022182      -109.4491
  18   1.0000      -4.019351      -109.3721
  19   1.0000      -4.019334      -109.3716
  20   1.0000      -4.018086      -109.3377
  21   1.0000      -3.132043       -85.2272
  22   1.0000      -2.256028       -61.3896
  23   1.0000      -2.255996       -61.3888
  24   1.0000      -2.254188       -61.3396
  25   1.0000      -2.253990       -61.3342
  26   1.0000      -2.251483       -61.2660
  27   1.0000      -2.250416       -61.2369
  28   1.0000      -2.249179       -61.2033
  29   1.0000      -2.249132       -61.2020
  30   1.0000      -2.246554       -61.1318
  31   1.0000      -2.246442       -61.1288
  32   1.0000      -2.245779       -61.1107
  33   1.0000      -2.244969       -61.0887
  34   1.0000      -2.244845       -61.0853
  35   1.0000      -2.244188       -61.0675
  36   1.0000      -2.243558       -61.0503
  37   1.0000      -2.243056       -61.0367
  38   1.0000      -2.242476       -61.0209
  39   1.0000      -2.241989       -61.0076
  40   1.0000      -2.241940       -61.0063
  41   1.0000      -2.241395       -60.9915
  42   1.0000      -2.240845       -60.9765
  43   1.0000      -2.240515       -60.9675
  44   1.0000      -2.239872       -60.9500
  45   1.0000      -2.239686       -60.9449
  46   1.0000      -2.239101       -60.9290
  47   1.0000      -2.237695       -60.8908
  48   1.0000      -2.237547       -60.8867
  49   1.0000      -2.237399       -60.8827
  50   1.0000      -2.237153       -60.8760
  51   1.0000      -2.236634       -60.8619
  52   1.0000      -2.235461       -60.8300
  53   1.0000      -2.234642       -60.8077
  54   1.0000      -2.234486       -60.8035
  55   1.0000      -2.234197       -60.7956
  56   1.0000      -2.233800       -60.7848
  57   1.0000      -2.233684       -60.7816
  58   1.0000      -2.233469       -60.7758
  59   1.0000      -2.233092       -60.7655
  60   1.0000      -2.232894       -60.7601
  61   1.0000      -2.232487       -60.7491
  62   1.0000      -2.232302       -60.7440
  63   1.0000      -2.231872       -60.7323
  64   1.0000      -2.231669       -60.7268
  65   1.0000      -2.231361       -60.7184
  66   1.0000      -2.230965       -60.7076
  67   1.0000      -2.228890       -60.6512
  68   1.0000      -2.228853       -60.6502
  69   1.0000      -2.227839       -60.6226
  70   1.0000      -2.037183       -55.4346
  71   1.0000      -2.033275       -55.3282
  72   1.0000      -2.032687       -55.3122
  73   1.0000      -0.415347       -11.3022
  74   1.0000      -0.390447       -10.6246
  75   1.0000      -0.385690       -10.4952
  76   1.0000      -0.385440       -10.4884
  77   1.0000      -0.370519       -10.0823
  78   1.0000      -0.370254       -10.0751
  79   1.0000      -0.369764       -10.0618
  80   1.0000      -0.367039        -9.9876
  81   1.0000      -0.366636        -9.9767
  82   1.0000      -0.364910        -9.9297
  83   1.0000      -0.361598        -9.8396
  84   1.0000      -0.360793        -9.8177
  85   1.0000      -0.358051        -9.7431
  86   1.0000      -0.357721        -9.7341
  87   1.0000      -0.354395        -9.6436
  88   1.0000      -0.352383        -9.5888
  89   1.0000      -0.351093        -9.5537
  90   1.0000      -0.348854        -9.4928
  91   1.0000      -0.348809        -9.4916
  92   1.0000      -0.347181        -9.4473
  93   1.0000      -0.344348        -9.3702
  94   1.0000      -0.343488        -9.3468
  95   1.0000      -0.343364        -9.3434
  96   1.0000      -0.342896        -9.3307
  97   1.0000      -0.339978        -9.2513
  98   1.0000      -0.337678        -9.1887
  99   1.0000      -0.334456        -9.1010
 100   1.0000      -0.332687        -9.0529
 101   1.0000      -0.331316        -9.0156
 102   1.0000      -0.330905        -9.0044
 103   1.0000      -0.324948        -8.8423
 104   1.0000      -0.324874        -8.8403
 105   1.0000      -0.318931        -8.6786
 106   1.0000      -0.315744        -8.5918
 107   1.0000      -0.314492        -8.5578
 108   1.0000      -0.313410        -8.5283
 109   1.0000      -0.312006        -8.4901
 110   1.0000      -0.310930        -8.4608
 111   1.0000      -0.309632        -8.4255
 112   1.0000      -0.306710        -8.3460
 113   1.0000      -0.301863        -8.2141
 114   1.0000      -0.301670        -8.2088
 115   1.0000      -0.296540        -8.0693
 116   1.0000      -0.296109        -8.0575
 117   1.0000      -0.293005        -7.9731
 118   1.0000      -0.292823        -7.9681
 119   1.0000      -0.291691        -7.9373
 120   1.0000      -0.287345        -7.8190
 121   1.0000      -0.285468        -7.7680
 122   1.0000      -0.284857        -7.7513
 123   1.0000      -0.284562        -7.7433
 124   1.0000      -0.281235        -7.6528
 125   1.0000      -0.279168        -7.5966
 126   1.0000      -0.278974        -7.5913
 127   1.0000      -0.277373        -7.5477
 128   1.0000      -0.275454        -7.4955
 129   1.0000      -0.272159        -7.4058
 130   1.0000      -0.271628        -7.3914
 131   1.0000      -0.269871        -7.3436
 132   1.0000      -0.269667        -7.3380
 133   1.0000      -0.268360        -7.3024
 134   1.0000      -0.268337        -7.3018
 135   1.0000      -0.263648        -7.1742
 136   1.0000      -0.263310        -7.1650
 137   1.0000      -0.262556        -7.1445
 138   1.0000      -0.261078        -7.1043
 139   1.0000      -0.260483        -7.0881
 140   1.0000      -0.260426        -7.0865
 141   1.0000      -0.258893        -7.0448
 142   1.0000      -0.258319        -7.0292
 143   1.0000      -0.256508        -6.9799
 144   1.0000      -0.255196        -6.9442
 145   1.0000      -0.254837        -6.9345
 146   1.0000      -0.254443        -6.9237
 147   1.0000      -0.253223        -6.8905
 148   1.0000      -0.252943        -6.8829
 149   1.0000      -0.249626        -6.7927
 150   1.0000      -0.249173        -6.7804
 151   1.0000      -0.248153        -6.7526
 152   1.0000      -0.247222        -6.7272
 153   1.0000      -0.245676        -6.6852
 154   1.0000      -0.244282        -6.6473
 155   1.0000      -0.243843        -6.6353
 156   1.0000      -0.243276        -6.6199
 157   1.0000      -0.240616        -6.5475
 158   1.0000      -0.238825        -6.4988
 159   1.0000      -0.237722        -6.4687
 160   1.0000      -0.233754        -6.3608
 161   1.0000      -0.229834        -6.2541
 162   1.0000      -0.228699        -6.2232
 163   1.0000      -0.218567        -5.9475
 164   1.0000      -0.214669        -5.8414
 165   1.0000      -0.208470        -5.6728
 166   1.0000      -0.207441        -5.6447
 167   0.0000      -0.150595        -4.0979
 168   0.0000      -0.140670        -3.8278
 169   0.0000      -0.137041        -3.7291
 170   0.0000      -0.136396        -3.7115
 171   0.0000      -0.134244        -3.6530

                 SPIN DOWN ORBITALS
  NO   OCC          E(Eh)            E(eV)
   0   1.0000    -234.219620     -6373.4399
   1   1.0000     -26.849916      -730.6234
   2   1.0000     -23.014857      -626.2661
   3   1.0000     -23.014547      -626.2577
   4   1.0000     -23.014268      -626.2501
   5   1.0000      -4.036178      -109.8300
   6   1.0000      -4.036146      -109.8291
   7   1.0000      -4.034959      -109.7968
   8   1.0000      -4.034894      -109.7950
   9   1.0000      -4.028403      -109.6184
  10   1.0000      -4.026051      -109.5544
  11   1.0000      -4.025947      -109.5516
  12   1.0000      -4.025931      -109.5512
  13   1.0000      -4.025839      -109.5486
  14   1.0000      -4.025223      -109.5319
  15   1.0000      -4.023676      -109.4898
  16   1.0000      -4.023670      -109.4896
  17   1.0000      -4.022216      -109.4501
  18   1.0000      -4.019333      -109.3716
  19   1.0000      -4.019315      -109.3711
  20   1.0000      -4.018072      -109.3373
  21   1.0000      -2.959977       -80.5451
  22   1.0000      -2.253665       -61.3253
  23   1.0000      -2.253619       -61.3241
  24   1.0000      -2.251998       -61.2800
  25   1.0000      -2.251810       -61.2749
  26   1.0000      -2.249606       -61.2149
  27   1.0000      -2.248723       -61.1909
  28   1.0000      -2.247817       -61.1662
  29   1.0000      -2.247696       -61.1629
  30   1.0000      -2.245144       -61.0935
  31   1.0000      -2.245039       -61.0906
  32   1.0000      -2.244845       -61.0853
  33   1.0000      -2.244038       -61.0634
  34   1.0000      -2.243879       -61.0590
  35   1.0000      -2.243490       -61.0485
  36   1.0000      -2.243403       -61.0461
  37   1.0000      -2.242566       -61.0233
  38   1.0000      -2.242027       -61.0086
  39   1.0000      -2.241520       -60.9949
  40   1.0000      -2.241428       -60.9923
  41   1.0000      -2.240972       -60.9799
  42   1.0000      -2.240470       -60.9663
  43   1.0000      -2.240330       -60.9625
  44   1.0000      -2.239750       -60.9467
  45   1.0000      -2.239563       -60.9416
  46   1.0000      -2.238846       -60.9221
  47   1.0000      -2.237574       -60.8875
  48   1.0000      -2.237342       -60.8812
  49   1.0000      -2.237103       -60.8747
  50   1.0000      -2.237057       -60.8734
  51   1.0000      -2.236594       -60.8608
  52   1.0000      -2.234687       -60.8089
  53   1.0000      -2.234482       -60.8033
  54   1.0000      -2.234387       -60.8008
  55   1.0000      -2.234177       -60.7950
  56   1.0000      -2.233743       -60.7832
  57   1.0000      -2.233703       -60.7822
  58   1.0000      -2.233461       -60.7756
  59   1.0000      -2.233024       -60.7637
  60   1.0000      -2.232873       -60.7596
  61   1.0000      -2.232463       -60.7484
  62   1.0000      -2.232265       -60.7430
  63   1.0000      -2.231835       -60.7313
  64   1.0000      -2.231597       -60.7248
  65   1.0000      -2.231321       -60.7173
  66   1.0000      -2.230935       -60.7068
  67   1.0000      -2.228878       -60.6508
  68   1.0000      -2.228841       -60.6498
  69   1.0000      -2.227799       -60.6215
  70   1.0000      -1.866480       -50.7895
  71   1.0000      -1.864904       -50.7466
  72   1.0000      -1.864455       -50.7344
  73   1.0000      -0.413543       -11.2531
  74   1.0000      -0.387321       -10.5395
  75   1.0000      -0.384248       -10.4559
  76   1.0000      -0.383732       -10.4419
  77   1.0000      -0.369457       -10.0534
  78   1.0000      -0.366666        -9.9775
  79   1.0000      -0.366090        -9.9618
  80   1.0000      -0.365059        -9.9338
  81   1.0000      -0.364543        -9.9197
  82   1.0000      -0.362217        -9.8564
  83   1.0000      -0.359108        -9.7718
  84   1.0000      -0.357419        -9.7259
  85   1.0000      -0.354167        -9.6374
  86   1.0000      -0.352553        -9.5935
  87   1.0000      -0.352297        -9.5865
  88   1.0000      -0.350334        -9.5331
  89   1.0000      -0.348763        -9.4903
  90   1.0000      -0.344528        -9.3751
  91   1.0000      -0.343447        -9.3457
  92   1.0000      -0.343431        -9.3452
  93   1.0000      -0.341893        -9.3034
  94   1.0000      -0.341583        -9.2949
  95   1.0000      -0.339694        -9.2435
  96   1.0000      -0.339154        -9.2289
  97   1.0000      -0.339096        -9.2273
  98   1.0000      -0.333103        -9.0642
  99   1.0000      -0.330640        -8.9972
 100   1.0000      -0.330155        -8.9840
 101   1.0000      -0.329307        -8.9609
 102   1.0000      -0.327626        -8.9152
 103   1.0000      -0.323561        -8.8045
 104   1.0000      -0.318534        -8.6678
 105   1.0000      -0.313083        -8.5194
 106   1.0000      -0.312982        -8.5167
 107   1.0000      -0.310234        -8.4419
 108   1.0000      -0.310083        -8.4378
 109   1.0000      -0.309857        -8.4316
 110   1.0000      -0.305343        -8.3088
 111   1.0000      -0.304500        -8.2859
 112   1.0000      -0.302089        -8.2203
 113   1.0000      -0.298599        -8.1253
 114   1.0000      -0.296344        -8.0639
 115   1.0000      -0.294694        -8.0190
 116   1.0000      -0.293103        -7.9757
 117   1.0000      -0.292070        -7.9476
 118   1.0000      -0.287671        -7.8279
 119   1.0000      -0.287274        -7.8171
 120   1.0000      -0.284874        -7.7518
 121   1.0000      -0.284766        -7.7489
 122   1.0000      -0.283708        -7.7201
 123   1.0000      -0.281518        -7.6605
 124   1.0000      -0.278537        -7.5794
 125   1.0000      -0.276374        -7.5205
 126   1.0000      -0.274461        -7.4685
 127   1.0000      -0.272130        -7.4050
 128   1.0000      -0.269058        -7.3215
 129   1.0000      -0.268094        -7.2952
 130   1.0000      -0.266010        -7.2385
 131   1.0000      -0.265304        -7.2193
 132   1.0000      -0.263753        -7.1771
 133   1.0000      -0.262784        -7.1507
 134   1.0000      -0.262680        -7.1479
 135   1.0000      -0.261870        -7.1258
 136   1.0000      -0.260309        -7.0834
 137   1.0000      -0.259106        -7.0506
 138   1.0000      -0.257272        -7.0007
 139   1.0000      -0.255684        -6.9575
 140   1.0000      -0.255426        -6.9505
 141   1.0000      -0.255224        -6.9450
 142   1.0000      -0.254730        -6.9316
 143   1.0000      -0.252842        -6.8802
 144   1.0000      -0.251733        -6.8500
 145   1.0000      -0.250906        -6.8275
 146   1.0000      -0.249067        -6.7775
 147   1.0000      -0.247000        -6.7212
 148   1.0000      -0.246555        -6.7091
 149   1.0000      -0.244305        -6.6479
 150   1.0000      -0.243630        -6.6295
 151   1.0000      -0.243550        -6.6273
 152   1.0000      -0.240470        -6.5435
 153   1.0000      -0.238992        -6.5033
 154   1.0000      -0.237501        -6.4627
 155   1.0000      -0.233504        -6.3540
 156   1.0000      -0.231174        -6.2906
 157   1.0000      -0.227892        -6.2013
 158   1.0000      -0.216682        -5.8962
 159   1.0000      -0.214082        -5.8255
 160   1.0000      -0.209002        -5.6872
 161   1.0000      -0.206569        -5.6210
 162   0.0000      -0.161574        -4.3966
 163   0.0000      -0.159837        -4.3494
 164   0.0000      -0.151188        -4.1140
 165   0.0000      -0.148318        -4.0359
 166   0.0000      -0.144278        -3.9260

MULLIKEN ATOMIC CHARGES AND SPIN POPULATIONS
--------------------------------------------
   0 Au:    0.286084    0.041866
   1 Au:   -0.278880    0.017741
   2 Au:   -0.271419    0.017836
   3 Au:    0.284600    0.041759
   4 Au:    0.044376    0.011574
   5 Au:    0.182030   -0.000141
   6 Au:   -0.264744    0.023519
   7 Au:    0.486498    0.021992
   8 Au:   -0.252198    0.016053
   9 Au:    0.532268   -0.012110
  10 Au:   -0.243524    0.015873
  11 Au:   -0.471543    0.003640
  12 Au:    0.182790   -0.000100
  13 Au:    0.262522    0.004878
  14 Au:   -0.466820    0.003587
  15 Au:    0.043577    0.011611
  16 Mn:   -0.055617    4.780421
Sum of atomic charges         :   -0.0000000

LOEWDIN ATOMIC CHARGES AND SPIN POPULATIONS
-------------------------------------------
   0 Au:    0.015622    0.075663
   1 Au:   -0.053624    0.072093
   2 Au:   -0.052940    0.071939
   3 Au:    0.015502    0.075627
   4 Au:   -0.025260    0.009696
   5 Au:    0.010283    0.002700
   6 Au:   -0.036304    0.065703
   7 Au:    0.105774    0.019171
   8 Au:   -0.084930    0.008424
   9 Au:    0.142582   -0.008178
  10 Au:   -0.084196    0.008419
  11 Au:   -0.081360    0.002643
  12 Au:    0.010572    0.002730
  13 Au:    0.032533    0.006728
  14 Au:   -0.081121    0.002605
  15 Au:   -0.025473    0.009690
  16 Mn:    0.192339    4.574348

  Mayer bond orders larger than 0.100000
B(  0-Au,  1-Au) :   0.2833 B(  0-Au,  6-Au) :   0.2415 B(  0-Au, 12-Au) :   0.2243
B(  0-Au, 15-Au) :   0.3011 B(  0-Au, 16-Mn) :   0.4807 B(  1-Au,  2-Au) :   0.1888
B(  1-Au,  7-Au) :   0.3053 B(  1-Au, 10-Au) :   0.3078 B(  1-Au, 12-Au) :   0.2916
B(  1-Au, 16-Mn) :   0.5290 B(  2-Au,  3-Au) :   0.2842 B(  2-Au,  5-Au) :   0.2894
B(  2-Au,  7-Au) :   0.3039 B(  2-Au,  8-Au) :   0.3091 B(  2-Au, 16-Mn) :   0.5280
B(  3-Au,  4-Au) :   0.3006 B(  3-Au,  5-Au) :   0.2255 B(  3-Au,  6-Au) :   0.2401
B(  3-Au, 16-Mn) :   0.4812 B(  4-Au,  5-Au) :   0.2470 B(  4-Au,  6-Au) :   0.3788
B(  4-Au, 13-Au) :   0.3292 B(  4-Au, 14-Au) :   0.3937 B(  5-Au,  8-Au) :   0.3588
B(  5-Au, 14-Au) :   0.3065 B(  6-Au, 13-Au) :   0.1200 B(  6-Au, 15-Au) :   0.3769
B(  6-Au, 16-Mn) :   0.4724 B(  7-Au,  8-Au) :   0.2486 B(  7-Au, 10-Au) :   0.2476
B(  8-Au,  9-Au) :   0.1962 B(  8-Au, 10-Au) :   0.3977 B(  8-Au, 14-Au) :   0.3154
B(  9-Au, 10-Au) :   0.1963 B(  9-Au, 11-Au) :   0.3193 B(  9-Au, 14-Au) :   0.3181
B( 10-Au, 11-Au) :   0.3165 B( 10-Au, 12-Au) :   0.3575 B( 11-Au, 12-Au) :   0.3056
B( 11-Au, 13-Au) :   0.3008 B( 11-Au, 14-Au) :   0.3886 B( 11-Au, 15-Au) :   0.3948
B( 12-Au, 15-Au) :   0.2475 B( 13-Au, 14-Au) :   0.3001 B( 13-Au, 15-Au) :   0.3300

FINAL SINGLE POINT ENERGY     -3324.044329009249

DIPOLE MOMENT
-------------
                                X             Y             Z
Electronic contribution:    -66.97372      85.41664     -38.54100
Nuclear contribution   :     67.12857     -85.93754      39.07111
                        -----------------------------------------
Total Dipole Moment    :      0.15485      -0.52090       0.53011
                        -----------------------------------------
Magnitude (a.u.)       :      0.75917
Magnitude (Debye)      :      1.92965

Rotational constants in cm-1:     0.000850     0.000819     0.000766
Rotational constants in MHz :    25.477592    24.542247    22.974616

                             ****ORCA TERMINATED NORMALLY****
TOTAL RUN TIME: 0 days 5 hours 49 minutes 10 seconds 559 msec
