                         Program Version 5.0.3 -  RELEASE  -
|  1> !CASSCF def2-TZVP def2-TZVP/C
|  2> !MOREAD RIJCOSX
|  3> %maxcore 6000
|  4> %moinp "pbe.qro"
|  5> %pal nprocs 2 end
|  6>
|  7> %casscf
|  8>  mult 5,3
|  9>  bweight 1,1
| 10>  nroots 5,45
| 11>  nel 6
| 12>  norb 5
| 13> end
| 14>
| 15>
| 16> *xyzfile 0 5 pbe.xyz
| 17>
| 18>
| 19>                          ****END OF INPUT****

CARTESIAN COORDINATES (ANGSTROEM)
---------------------------------
  Au     7.798623    6.285975    5.170911
  Au     5.572559    7.652629    6.322152
  Au     6.030380    5.507326    9.812774
  Au     6.508558    4.846350    7.263255
  Au     5.078174    8.372378    8.852576
  Au     9.415951    5.892469    7.489944
  Au     9.006699    6.574609   10.045897
  Au     6.745623    7.945411   11.134792
  Au     8.052196    9.440198    9.084502
  Au     8.482725    8.695011    6.549240
  Cr     7.259591    7.135804    8.225311

 Total Charge           Charge          ....    0
 Multiplicity           Mult            ....    5
 Number of Electrons    NEL             ....  214
 Basis Dimension        Dim             ....  445

ORBITAL ENERGIES
----------------

  NO   OCC          E(Eh)            E(eV)
   0   2.0000    -220.535885     -6001.0865
   1   2.0000     -26.387102      -718.0295
   2   2.0000     -22.319169      -607.3355
   3   2.0000     -22.319148      -607.3349
   4   2.0000     -22.307945      -607.0300
   5   2.0000      -4.712029      -128.2208
   6   2.0000      -4.711713      -128.2122
   7   2.0000      -4.702584      -127.9638
   8   2.0000      -4.702518      -127.9620
   9   2.0000      -4.702465      -127.9606
  10   2.0000      -4.702432      -127.9597
  11   2.0000      -4.700954      -127.9195
  12   2.0000      -4.700868      -127.9171
  13   2.0000      -4.700842      -127.9164
  14   2.0000      -4.700802      -127.9153
  15   2.0000      -3.434042       -93.4450
  16   2.0000      -2.749543       -74.8189
  17   2.0000      -2.749199       -74.8095
  18   2.0000      -2.748653       -74.7947
  19   2.0000      -2.748645       -74.7944
  20   2.0000      -2.748247       -74.7836
  21   2.0000      -2.748245       -74.7835
  22   2.0000      -2.744454       -74.6804
  23   2.0000      -2.744318       -74.6767
  24   2.0000      -2.744296       -74.6761
  25   2.0000      -2.744275       -74.6755
  26   2.0000      -2.740243       -74.5658
  27   2.0000      -2.739686       -74.5506
  28   2.0000      -2.739660       -74.5499
  29   2.0000      -2.739094       -74.5345
  30   2.0000      -2.738628       -74.5219
  31   2.0000      -2.738318       -74.5134
  32   2.0000      -2.738293       -74.5127
  33   2.0000      -2.738006       -74.5049
  34   2.0000      -2.735938       -74.4487
  35   2.0000      -2.734960       -74.4221
  36   2.0000      -2.734934       -74.4214
  37   2.0000      -2.734178       -74.4008
  38   2.0000      -2.734174       -74.4007
  39   2.0000      -2.734064       -74.3977
  40   2.0000      -2.733997       -74.3958
  41   2.0000      -2.733979       -74.3953
  42   2.0000      -2.733756       -74.3893
  43   2.0000      -2.732968       -74.3678
  44   2.0000      -2.732947       -74.3673
  45   2.0000      -2.732371       -74.3516
  46   2.0000      -2.194596       -59.7180
  47   2.0000      -2.194575       -59.7174
  48   2.0000      -2.185270       -59.4642
  49   2.0000      -0.549111       -14.9421
  50   2.0000      -0.538272       -14.6471
  51   2.0000      -0.529475       -14.4078
  52   2.0000      -0.529421       -14.4063
  53   2.0000      -0.524601       -14.2751
  54   2.0000      -0.523009       -14.2318
  55   2.0000      -0.519224       -14.1288
  56   2.0000      -0.519170       -14.1273
  57   2.0000      -0.518545       -14.1103
  58   2.0000      -0.515743       -14.0341
  59   2.0000      -0.514406       -13.9977
  60   2.0000      -0.514366       -13.9966
  61   2.0000      -0.512283       -13.9399
  62   2.0000      -0.507797       -13.8179
  63   2.0000      -0.507052       -13.7976
  64   2.0000      -0.505170       -13.7464
  65   2.0000      -0.505093       -13.7443
  66   2.0000      -0.496816       -13.5191
  67   2.0000      -0.480635       -13.0787
  68   2.0000      -0.480595       -13.0777
  69   2.0000      -0.474746       -12.9185
  70   2.0000      -0.474685       -12.9168
  71   2.0000      -0.473614       -12.8877
  72   2.0000      -0.472531       -12.8582
  73   2.0000      -0.471849       -12.8397
  74   2.0000      -0.469578       -12.7779
  75   2.0000      -0.469490       -12.7755
  76   2.0000      -0.463344       -12.6082
  77   2.0000      -0.461958       -12.5705
  78   2.0000      -0.461917       -12.5694
  79   2.0000      -0.460394       -12.5280
  80   2.0000      -0.456767       -12.4293
  81   2.0000      -0.455205       -12.3868
  82   2.0000      -0.451969       -12.2987
  83   2.0000      -0.439692       -11.9646
  84   2.0000      -0.438677       -11.9370
  85   2.0000      -0.434194       -11.8150
  86   2.0000      -0.434130       -11.8133
  87   2.0000      -0.433830       -11.8051
  88   2.0000      -0.433809       -11.8045
  89   2.0000      -0.433757       -11.8031
  90   2.0000      -0.432712       -11.7747
  91   2.0000      -0.432023       -11.7559
  92   2.0000      -0.430876       -11.7247
  93   2.0000      -0.420813       -11.4509
  94   2.0000      -0.419254       -11.4085
  95   2.0000      -0.416272       -11.3273
  96   2.0000      -0.416224       -11.3260
  97   2.0000      -0.413961       -11.2645
  98   2.0000      -0.413883       -11.2623
  99   2.0000      -0.394490       -10.7346
 100   2.0000      -0.324240        -8.8230
 101   2.0000      -0.294860        -8.0236
 102   2.0000      -0.294723        -8.0198
 103   2.0000      -0.213705        -5.8152
 104   1.2000      -0.123346        -3.3564
 105   1.2000      -0.137886        -3.7521
 106   1.2000      -0.101098        -2.7510
 107   1.2000      -0.162563        -4.4236
 108   1.2000      -0.119649        -3.2558
 109   0.0000      -0.004063        -0.1105
 110   0.0000      -0.003942        -0.1073
 111   0.0000       0.012669         0.3448
 112   0.0000       0.025845         0.7033
 113   0.0000       0.040215         1.0943

MULLIKEN ATOMIC CHARGES AND SPIN DENSITIES
------------------------------------------
   0 Au:    0.399013    0.134564
   1 Au:    0.369551    0.027008
   2 Au:    0.381379    0.026137
   3 Au:    0.368228    0.026983
   4 Au:    0.380228    0.026288
   5 Au:    0.371164    0.027119
   6 Au:    0.379790    0.026133
   7 Au:    0.416462    0.132682
   8 Au:    0.379160    0.026181
   9 Au:    0.371717    0.027037
  10 Cr:   -3.816691    2.519866
Sum of atomic charges       :    0.0000000

LOEWDIN ATOMIC CHARGES AND SPIN DENSITIES
-----------------------------------------
   0 Au:    0.160682    0.129145
   1 Au:    0.087497    0.057904
   2 Au:    0.096005    0.060300
   3 Au:    0.086410    0.057952
   4 Au:    0.095188    0.060623
   5 Au:    0.087587    0.057940
   6 Au:    0.095062    0.060491
   7 Au:    0.154708    0.135137
   8 Au:    0.094142    0.060602
   9 Au:    0.088344    0.057742
  10 Cr:   -1.045624    2.262164

  Mayer bond orders larger than 0.100000
B(  0-Au,  1-Au) :   0.1320 B(  0-Au,  3-Au) :   0.1336 B(  0-Au,  5-Au) :   0.1317
B(  0-Au,  9-Au) :   0.1306 B(  0-Au, 10-Cr) :   0.3529 B(  1-Au,  4-Au) :   0.2941
B(  1-Au,  6-Au) :   0.1457 B(  1-Au, 10-Cr) :   0.4990 B(  2-Au,  3-Au) :   0.2940
B(  2-Au,  7-Au) :   0.1235 B(  2-Au,  9-Au) :   0.1454 B(  2-Au, 10-Cr) :   0.5180
B(  3-Au,  8-Au) :   0.1465 B(  3-Au, 10-Cr) :   0.4998 B(  4-Au,  5-Au) :   0.1462
B(  4-Au,  7-Au) :   0.1250 B(  4-Au, 10-Cr) :   0.5180 B(  5-Au,  6-Au) :   0.2935
B(  5-Au, 10-Cr) :   0.4970 B(  6-Au,  7-Au) :   0.1250 B(  6-Au, 10-Cr) :   0.5201
B(  7-Au,  8-Au) :   0.1262 B(  7-Au, 10-Cr) :   0.3563 B(  8-Au,  9-Au) :   0.2935
B(  8-Au, 10-Cr) :   0.5209 B(  9-Au, 10-Cr) :   0.4970

FINAL SINGLE POINT ENERGY     -2391.185016049840

DIPOLE MOMENT
-------------
                                X             Y             Z
Electronic contribution:      0.33673      -0.51309      -1.85703
Nuclear contribution   :     -0.33407       0.50920       1.84219
                        -----------------------------------------
Total Dipole Moment    :      0.00266      -0.00389      -0.01484
                        -----------------------------------------
Magnitude (a.u.)       :      0.01557
Magnitude (Debye)      :      0.03958

Rotational constants in cm-1:     0.002177     0.001594     0.001593
Rotational constants in MHz :    65.264761    47.787572    47.770293

                             ****ORCA TERMINATED NORMALLY****
TOTAL RUN TIME: 0 days 0 hours 45 minutes 44 seconds 852 msec
