                         Program Version 5.0.3 -  RELEASE  -
|  1> %pal nprocs 1 end
|  2>
|  3> !PBE def2-TZVP OPT UNO
|  4> !SLOWCONV
|  5>
|  6> *xyzfile 0 6 1.xyz                           ****END OF INPUT****
 Total Charge           Charge          ....    0
 Multiplicity           Mult            ....    6
 Number of Electrons    NEL             ....  311
FINAL SINGLE POINT ENERGY     -3300.914966972693
FINAL SINGLE POINT ENERGY     -3300.917423478602
FINAL SINGLE POINT ENERGY     -3300.917696659432
FINAL SINGLE POINT ENERGY     -3300.918262925339
FINAL SINGLE POINT ENERGY     -3300.918736913781
FINAL SINGLE POINT ENERGY     -3300.919215315312
FINAL SINGLE POINT ENERGY     -3300.919627897742
FINAL SINGLE POINT ENERGY     -3300.919909201344
FINAL SINGLE POINT ENERGY     -3300.920115384999
FINAL SINGLE POINT ENERGY     -3300.920265636296
FINAL SINGLE POINT ENERGY     -3300.920558991797
FINAL SINGLE POINT ENERGY     -3300.920563274882
FINAL SINGLE POINT ENERGY     -3300.920567642282
FINAL SINGLE POINT ENERGY     -3300.920572699914
FINAL SINGLE POINT ENERGY     -3300.920578955423
FINAL SINGLE POINT ENERGY     -3300.920583202200
FINAL SINGLE POINT ENERGY     -3300.920587917565
FINAL SINGLE POINT ENERGY     -3300.920590369848
FINAL SINGLE POINT ENERGY     -3300.920590907811
                    ***********************HURRAY********************

CARTESIAN COORDINATES (ANGSTROEM)
---------------------------------
  Au     8.118630   10.838579    7.736253
  Au     7.851338   10.627280    4.953311
  Au     6.839951    9.275117    9.573605
  Au     9.639065    8.851344    8.892199
  Au     4.298777    8.432915    8.366348
  Au     5.771216    9.897232    6.632977
  Au     8.400951    6.794920   10.110746
  Au     5.653075    6.810448   10.157927
  Au     9.181473    6.486310    7.252097
  Au     6.841301    5.407094    5.844355
  Au     7.456196    7.884609    4.954723
  Au     9.725030    8.917772    6.139746
  Au     4.790711    7.457790    5.681036
  Au     4.697130    5.620433    7.780235
  Au     7.308716    4.840065    8.517576
  Fe     6.755309    7.462902    7.648832

 Multiplicity           Mult            ....    6
 Number of Electrons    NEL             ....  311
 Basis Dimension        Dim             ....  645

ORBITAL ENERGIES
----------------
                 SPIN UP ORBITALS
  NO   OCC          E(Eh)            E(eV)
   0   1.0000    -254.788763     -6933.1547
   1   1.0000     -29.630761      -806.2940
   2   1.0000     -25.570720      -695.8147
   3   1.0000     -25.563813      -695.6267
   4   1.0000     -25.561442      -695.5622
   5   1.0000      -4.037009      -109.8526
   6   1.0000      -4.036937      -109.8506
   7   1.0000      -4.035648      -109.8156
   8   1.0000      -4.035592      -109.8140
   9   1.0000      -4.032726      -109.7361
  10   1.0000      -4.032688      -109.7350
  11   1.0000      -4.032158      -109.7206
  12   1.0000      -4.032132      -109.7199
  13   1.0000      -4.031597      -109.7053
  14   1.0000      -4.030232      -109.6682
  15   1.0000      -4.025687      -109.5445
  16   1.0000      -4.025331      -109.5348
  17   1.0000      -4.023915      -109.4963
  18   1.0000      -4.023834      -109.4941
  19   1.0000      -4.022757      -109.4648
  20   1.0000      -3.411167       -92.8226
  21   1.0000      -2.253727       -61.3270
  22   1.0000      -2.253549       -61.3222
  23   1.0000      -2.253197       -61.3126
  24   1.0000      -2.253126       -61.3107
  25   1.0000      -2.251004       -61.2529
  26   1.0000      -2.250958       -61.2517
  27   1.0000      -2.248557       -61.1863
  28   1.0000      -2.247985       -61.1708
  29   1.0000      -2.247784       -61.1653
  30   1.0000      -2.247229       -61.1502
  31   1.0000      -2.247150       -61.1481
  32   1.0000      -2.246974       -61.1433
  33   1.0000      -2.246655       -61.1346
  34   1.0000      -2.246476       -61.1297
  35   1.0000      -2.246274       -61.1242
  36   1.0000      -2.246188       -61.1219
  37   1.0000      -2.245674       -61.1079
  38   1.0000      -2.245485       -61.1028
  39   1.0000      -2.245424       -61.1011
  40   1.0000      -2.244931       -61.0877
  41   1.0000      -2.244507       -61.0761
  42   1.0000      -2.244442       -61.0744
  43   1.0000      -2.243899       -61.0596
  44   1.0000      -2.243858       -61.0585
  45   1.0000      -2.243406       -61.0462
  46   1.0000      -2.242707       -61.0272
  47   1.0000      -2.242360       -61.0177
  48   1.0000      -2.241810       -61.0027
  49   1.0000      -2.241685       -60.9993
  50   1.0000      -2.241542       -60.9955
  51   1.0000      -2.240948       -60.9793
  52   1.0000      -2.240550       -60.9685
  53   1.0000      -2.240237       -60.9600
  54   1.0000      -2.239146       -60.9303
  55   1.0000      -2.238400       -60.9100
  56   1.0000      -2.237885       -60.8960
  57   1.0000      -2.237565       -60.8872
  58   1.0000      -2.237079       -60.8740
  59   1.0000      -2.237037       -60.8729
  60   1.0000      -2.236246       -60.8513
  61   1.0000      -2.236146       -60.8486
  62   1.0000      -2.234869       -60.8139
  63   1.0000      -2.234586       -60.8062
  64   1.0000      -2.233827       -60.7855
  65   1.0000      -2.232454       -60.7482
  66   1.0000      -2.232361       -60.7456
  67   1.0000      -2.221092       -60.4390
  68   1.0000      -2.216413       -60.3117
  69   1.0000      -0.444755       -12.1024
  70   1.0000      -0.396834       -10.7984
  71   1.0000      -0.394016       -10.7217
  72   1.0000      -0.392634       -10.6841
  73   1.0000      -0.386763       -10.5244
  74   1.0000      -0.384350       -10.4587
  75   1.0000      -0.381743       -10.3878
  76   1.0000      -0.379605       -10.3296
  77   1.0000      -0.377745       -10.2790
  78   1.0000      -0.369688       -10.0597
  79   1.0000      -0.364352        -9.9145
  80   1.0000      -0.362458        -9.8630
  81   1.0000      -0.360379        -9.8064
  82   1.0000      -0.358719        -9.7612
  83   1.0000      -0.356339        -9.6965
  84   1.0000      -0.351293        -9.5592
  85   1.0000      -0.351080        -9.5534
  86   1.0000      -0.350748        -9.5443
  87   1.0000      -0.350413        -9.5352
  88   1.0000      -0.348582        -9.4854
  89   1.0000      -0.345061        -9.3896
  90   1.0000      -0.344965        -9.3870
  91   1.0000      -0.344184        -9.3657
  92   1.0000      -0.342266        -9.3135
  93   1.0000      -0.340732        -9.2718
  94   1.0000      -0.338462        -9.2100
  95   1.0000      -0.336323        -9.1518
  96   1.0000      -0.335045        -9.1170
  97   1.0000      -0.331754        -9.0275
  98   1.0000      -0.331445        -9.0191
  99   1.0000      -0.330092        -8.9823
 100   1.0000      -0.326784        -8.8922
 101   1.0000      -0.322801        -8.7839
 102   1.0000      -0.321277        -8.7424
 103   1.0000      -0.317602        -8.6424
 104   1.0000      -0.314969        -8.5707
 105   1.0000      -0.312269        -8.4973
 106   1.0000      -0.310305        -8.4438
 107   1.0000      -0.308713        -8.4005
 108   1.0000      -0.304431        -8.2840
 109   1.0000      -0.302624        -8.2348
 110   1.0000      -0.296128        -8.0581
 111   1.0000      -0.296012        -8.0549
 112   1.0000      -0.293309        -7.9813
 113   1.0000      -0.291909        -7.9432
 114   1.0000      -0.290482        -7.9044
 115   1.0000      -0.285412        -7.7665
 116   1.0000      -0.285011        -7.7556
 117   1.0000      -0.281387        -7.6569
 118   1.0000      -0.280151        -7.6233
 119   1.0000      -0.277665        -7.5557
 120   1.0000      -0.276716        -7.5298
 121   1.0000      -0.275829        -7.5057
 122   1.0000      -0.275743        -7.5033
 123   1.0000      -0.275071        -7.4851
 124   1.0000      -0.274029        -7.4567
 125   1.0000      -0.273524        -7.4430
 126   1.0000      -0.272972        -7.4279
 127   1.0000      -0.271125        -7.3777
 128   1.0000      -0.271102        -7.3771
 129   1.0000      -0.269972        -7.3463
 130   1.0000      -0.267168        -7.2700
 131   1.0000      -0.266150        -7.2423
 132   1.0000      -0.266035        -7.2392
 133   1.0000      -0.264234        -7.1902
 134   1.0000      -0.262778        -7.1506
 135   1.0000      -0.262249        -7.1362
 136   1.0000      -0.261091        -7.1046
 137   1.0000      -0.259298        -7.0559
 138   1.0000      -0.258941        -7.0461
 139   1.0000      -0.256884        -6.9902
 140   1.0000      -0.256336        -6.9753
 141   1.0000      -0.254957        -6.9377
 142   1.0000      -0.253478        -6.8975
 143   1.0000      -0.251905        -6.8547
 144   1.0000      -0.251305        -6.8384
 145   1.0000      -0.250088        -6.8052
 146   1.0000      -0.249976        -6.8022
 147   1.0000      -0.248412        -6.7596
 148   1.0000      -0.246076        -6.6961
 149   1.0000      -0.244528        -6.6540
 150   1.0000      -0.243379        -6.6227
 151   1.0000      -0.242361        -6.5950
 152   1.0000      -0.233707        -6.3595
 153   1.0000      -0.225822        -6.1449
 154   1.0000      -0.212427        -5.7804
 155   1.0000      -0.209899        -5.7116
 156   1.0000      -0.198012        -5.3882
 157   1.0000      -0.197921        -5.3857
 158   0.0000      -0.149157        -4.0588
 159   0.0000      -0.142661        -3.8820
 160   0.0000      -0.134802        -3.6681
 161   0.0000      -0.129380        -3.5206
 162   0.0000      -0.122640        -3.3372

                 SPIN DOWN ORBITALS
  NO   OCC          E(Eh)            E(eV)
   0   1.0000    -254.787994     -6933.1338
   1   1.0000     -29.566743      -804.5520
   2   1.0000     -25.520079      -694.4367
   3   1.0000     -25.515980      -694.3251
   4   1.0000     -25.514845      -694.2942
   5   1.0000      -4.035680      -109.8164
   6   1.0000      -4.035609      -109.8145
   7   1.0000      -4.034447      -109.7829
   8   1.0000      -4.034394      -109.7814
   9   1.0000      -4.031974      -109.7156
  10   1.0000      -4.031937      -109.7146
  11   1.0000      -4.031457      -109.7015
  12   1.0000      -4.031430      -109.7008
  13   1.0000      -4.030537      -109.6765
  14   1.0000      -4.029371      -109.6447
  15   1.0000      -4.025028      -109.5266
  16   1.0000      -4.024839      -109.5214
  17   1.0000      -4.023469      -109.4841
  18   1.0000      -4.023390      -109.4820
  19   1.0000      -4.022239      -109.4507
  20   1.0000      -3.267429       -88.9113
  21   1.0000      -2.252317       -61.2887
  22   1.0000      -2.252124       -61.2834
  23   1.0000      -2.251429       -61.2645
  24   1.0000      -2.251367       -61.2628
  25   1.0000      -2.249235       -61.2048
  26   1.0000      -2.249189       -61.2035
  27   1.0000      -2.247378       -61.1543
  28   1.0000      -2.247045       -61.1452
  29   1.0000      -2.246164       -61.1212
  30   1.0000      -2.246118       -61.1200
  31   1.0000      -2.245989       -61.1165
  32   1.0000      -2.245882       -61.1136
  33   1.0000      -2.245444       -61.1016
  34   1.0000      -2.245364       -61.0995
  35   1.0000      -2.245257       -61.0965
  36   1.0000      -2.245172       -61.0942
  37   1.0000      -2.244786       -61.0837
  38   1.0000      -2.244616       -61.0791
  39   1.0000      -2.244563       -61.0777
  40   1.0000      -2.244117       -61.0655
  41   1.0000      -2.243607       -61.0517
  42   1.0000      -2.243456       -61.0475
  43   1.0000      -2.243170       -61.0398
  44   1.0000      -2.242831       -61.0305
  45   1.0000      -2.242417       -61.0193
  46   1.0000      -2.242089       -61.0103
  47   1.0000      -2.241642       -60.9982
  48   1.0000      -2.241250       -60.9875
  49   1.0000      -2.240983       -60.9803
  50   1.0000      -2.240716       -60.9730
  51   1.0000      -2.240347       -60.9629
  52   1.0000      -2.240013       -60.9539
  53   1.0000      -2.239707       -60.9455
  54   1.0000      -2.238484       -60.9122
  55   1.0000      -2.237819       -60.8942
  56   1.0000      -2.237370       -60.8819
  57   1.0000      -2.236837       -60.8674
  58   1.0000      -2.236548       -60.8596
  59   1.0000      -2.236532       -60.8591
  60   1.0000      -2.235677       -60.8359
  61   1.0000      -2.235596       -60.8337
  62   1.0000      -2.234102       -60.7930
  63   1.0000      -2.233375       -60.7732
  64   1.0000      -2.232034       -60.7367
  65   1.0000      -2.231888       -60.7328
  66   1.0000      -2.087525       -56.8045
  67   1.0000      -2.082427       -56.6657
  68   1.0000      -2.080711       -56.6190
  69   1.0000      -0.439334       -11.9549
  70   1.0000      -0.394790       -10.7428
  71   1.0000      -0.391278       -10.6472
  72   1.0000      -0.390337       -10.6216
  73   1.0000      -0.376897       -10.2559
  74   1.0000      -0.373129       -10.1534
  75   1.0000      -0.370021       -10.0688
  76   1.0000      -0.368961       -10.0399
  77   1.0000      -0.367121        -9.9899
  78   1.0000      -0.363370        -9.8878
  79   1.0000      -0.361052        -9.8247
  80   1.0000      -0.358391        -9.7523
  81   1.0000      -0.356140        -9.6911
  82   1.0000      -0.354994        -9.6599
  83   1.0000      -0.354036        -9.6338
  84   1.0000      -0.349618        -9.5136
  85   1.0000      -0.348912        -9.4944
  86   1.0000      -0.348044        -9.4708
  87   1.0000      -0.347663        -9.4604
  88   1.0000      -0.346892        -9.4394
  89   1.0000      -0.343660        -9.3515
  90   1.0000      -0.343476        -9.3465
  91   1.0000      -0.343033        -9.3344
  92   1.0000      -0.340137        -9.2556
  93   1.0000      -0.339090        -9.2271
  94   1.0000      -0.336175        -9.1478
  95   1.0000      -0.331652        -9.0247
  96   1.0000      -0.330184        -8.9848
  97   1.0000      -0.328465        -8.9380
  98   1.0000      -0.327422        -8.9096
  99   1.0000      -0.327144        -8.9020
 100   1.0000      -0.317877        -8.6499
 101   1.0000      -0.317842        -8.6489
 102   1.0000      -0.314557        -8.5595
 103   1.0000      -0.309247        -8.4150
 104   1.0000      -0.308903        -8.4057
 105   1.0000      -0.303634        -8.2623
 106   1.0000      -0.300376        -8.1736
 107   1.0000      -0.297292        -8.0897
 108   1.0000      -0.296051        -8.0560
 109   1.0000      -0.293798        -7.9946
 110   1.0000      -0.292918        -7.9707
 111   1.0000      -0.288045        -7.8381
 112   1.0000      -0.286374        -7.7926
 113   1.0000      -0.284949        -7.7539
 114   1.0000      -0.281930        -7.6717
 115   1.0000      -0.281418        -7.6578
 116   1.0000      -0.278713        -7.5842
 117   1.0000      -0.278271        -7.5721
 118   1.0000      -0.277885        -7.5616
 119   1.0000      -0.274851        -7.4791
 120   1.0000      -0.274028        -7.4567
 121   1.0000      -0.273081        -7.4309
 122   1.0000      -0.272223        -7.4076
 123   1.0000      -0.272100        -7.4042
 124   1.0000      -0.270826        -7.3695
 125   1.0000      -0.270553        -7.3621
 126   1.0000      -0.267527        -7.2798
 127   1.0000      -0.267177        -7.2702
 128   1.0000      -0.265835        -7.2337
 129   1.0000      -0.265067        -7.2128
 130   1.0000      -0.261719        -7.1217
 131   1.0000      -0.260890        -7.0992
 132   1.0000      -0.258365        -7.0305
 133   1.0000      -0.257565        -7.0087
 134   1.0000      -0.255620        -6.9558
 135   1.0000      -0.255591        -6.9550
 136   1.0000      -0.253627        -6.9015
 137   1.0000      -0.252377        -6.8675
 138   1.0000      -0.250719        -6.8224
 139   1.0000      -0.250087        -6.8052
 140   1.0000      -0.248627        -6.7655
 141   1.0000      -0.248224        -6.7545
 142   1.0000      -0.247036        -6.7222
 143   1.0000      -0.245311        -6.6753
 144   1.0000      -0.243398        -6.6232
 145   1.0000      -0.242766        -6.6060
 146   1.0000      -0.241420        -6.5694
 147   1.0000      -0.233116        -6.3434
 148   1.0000      -0.227895        -6.2013
 149   1.0000      -0.217428        -5.9165
 150   1.0000      -0.215396        -5.8612
 151   1.0000      -0.210985        -5.7412
 152   1.0000      -0.207336        -5.6419
 153   0.0000      -0.184331        -5.0159
 154   0.0000      -0.182754        -4.9730
 155   0.0000      -0.178694        -4.8625
 156   0.0000      -0.171053        -4.6546
 157   0.0000      -0.167384        -4.5548

MULLIKEN ATOMIC CHARGES AND SPIN POPULATIONS
--------------------------------------------
   0 Au:    0.133872    0.093558
   1 Au:    0.424392    0.080243
   2 Au:    0.068262    0.145884
   3 Au:    0.121379    0.113010
   4 Au:    0.342159    0.096578
   5 Au:   -0.169109    0.143985
   6 Au:    0.136041    0.134046
   7 Au:    0.282121    0.091342
   8 Au:    0.070259    0.145781
   9 Au:    0.342236    0.096646
  10 Au:   -0.166737    0.143857
  11 Au:    0.129133    0.093873
  12 Au:    0.334785    0.136805
  13 Au:    0.248789    0.122174
  14 Au:    0.282140    0.091356
  15 Fe:   -2.579722    3.270861
Sum of atomic charges         :   -0.0000000

LOEWDIN ATOMIC CHARGES AND SPIN POPULATIONS
-------------------------------------------
   0 Au:   -0.004619    0.090734
   1 Au:    0.098775    0.087657
   2 Au:    0.037099    0.120827
   3 Au:    0.001936    0.111671
   4 Au:    0.071089    0.090715
   5 Au:   -0.020778    0.119870
   6 Au:    0.020612    0.112219
   7 Au:    0.058368    0.081452
   8 Au:    0.037265    0.120795
   9 Au:    0.071186    0.090699
  10 Au:   -0.020646    0.119803
  11 Au:   -0.005688    0.090896
  12 Au:    0.064752    0.113823
  13 Au:    0.053713    0.096988
  14 Au:    0.058207    0.081431
  15 Fe:   -0.521270    3.470420

  Mayer bond orders larger than 0.100000
B(  0-Au,  1-Au) :   0.2352 B(  0-Au,  2-Au) :   0.3625 B(  0-Au,  3-Au) :   0.2835
B(  0-Au,  5-Au) :   0.2954 B(  0-Au, 11-Au) :   0.1825 B(  0-Au, 15-Fe) :   0.1773
B(  1-Au,  5-Au) :   0.3214 B(  1-Au, 10-Au) :   0.3217 B(  1-Au, 11-Au) :   0.2375
B(  2-Au,  3-Au) :   0.1663 B(  2-Au,  4-Au) :   0.1157 B(  2-Au,  6-Au) :   0.1115
B(  2-Au,  7-Au) :   0.2463 B(  2-Au, 15-Fe) :   0.5941 B(  3-Au,  6-Au) :   0.3538
B(  3-Au,  8-Au) :   0.1649 B(  3-Au, 11-Au) :   0.2846 B(  3-Au, 15-Fe) :   0.2609
B(  4-Au,  5-Au) :   0.3431 B(  4-Au,  7-Au) :   0.2240 B(  4-Au, 12-Au) :   0.1220
B(  4-Au, 13-Au) :   0.1452 B(  4-Au, 15-Fe) :   0.4652 B(  5-Au, 10-Au) :   0.1748
B(  5-Au, 12-Au) :   0.1973 B(  5-Au, 15-Fe) :   0.4964 B(  6-Au,  7-Au) :   0.2593
B(  6-Au,  8-Au) :   0.1111 B(  6-Au, 14-Au) :   0.2594 B(  6-Au, 15-Fe) :   0.3851
B(  7-Au, 13-Au) :   0.2007 B(  7-Au, 15-Fe) :   0.4159 B(  8-Au,  9-Au) :   0.1156
B(  8-Au, 11-Au) :   0.3629 B(  8-Au, 14-Au) :   0.2464 B(  8-Au, 15-Fe) :   0.5944
B(  9-Au, 10-Au) :   0.3438 B(  9-Au, 12-Au) :   0.1201 B(  9-Au, 13-Au) :   0.1465
B(  9-Au, 14-Au) :   0.2228 B(  9-Au, 15-Fe) :   0.4655 B( 10-Au, 11-Au) :   0.2936
B( 10-Au, 12-Au) :   0.1971 B( 10-Au, 15-Fe) :   0.4962 B( 11-Au, 15-Fe) :   0.1789
B( 12-Au, 13-Au) :   0.2319 B( 12-Au, 15-Fe) :   0.4383 B( 13-Au, 14-Au) :   0.2015
B( 13-Au, 15-Fe) :   0.5143 B( 14-Au, 15-Fe) :   0.4153

FINAL SINGLE POINT ENERGY     -3300.920591225420

DIPOLE MOMENT
-------------
                                X             Y             Z
Electronic contribution:     13.20460      15.77942      -5.58963
Nuclear contribution   :    -13.36478     -15.79734       5.45239
                        -----------------------------------------
Total Dipole Moment    :     -0.16019      -0.01792      -0.13724
                        -----------------------------------------
Magnitude (a.u.)       :      0.21170
Magnitude (Debye)      :      0.53809

Rotational constants in cm-1:     0.001113     0.000903     0.000829
Rotational constants in MHz :    33.363074    27.076883    24.863345

                             ****ORCA TERMINATED NORMALLY****
TOTAL RUN TIME: 0 days 6 hours 11 minutes 50 seconds 520 msec
