                         Program Version 5.0.3 -  RELEASE  -
|  1> !RI-B2PLYP def2-TZVP def2-TZVP/C
|  2> !RIJCOSX VERYSLOWCONV
|  3>
|  4> %scf
|  5>   AutoTRAHIter 200
|  6>   maxiter 400
|  7> end
|  8>
|  9>
| 10> %pal nprocs 6 end
| 11>
| 12> *xyzfile 0 5 pbe.xyz
| 13>
| 14> $new_job
| 15>
| 16> !RI-B2PLYP def2-TZVP def2-TZVP/C
| 17> !RIJCOSX VERYSLOWCONV
| 18>
| 19> %scf
| 20>   AutoTRAHIter 200
| 21>   maxiter 400
| 22> end
| 23>
| 24>
| 25> %pal nprocs 6 end
| 26>
| 27> *xyzfile 0 3 pbe.xyz
| 28>
| 29>
| 30>
| 31>
| 32>
| 33>                          ****END OF INPUT****
 Total Charge           Charge          ....    0
 Multiplicity           Mult            ....    5
 Number of Electrons    NEL             ....  254
MP2 TOTAL ENERGY:    -2890.527884787 Eh
FINAL SINGLE POINT ENERGY     -2890.527884787200

CARTESIAN COORDINATES (ANGSTROEM)
---------------------------------
  Au     4.858170    6.854492    8.286054
  Au     7.727526    5.172268    5.072792
  Au     6.739658    4.933071    7.650575
  Au     7.670542    7.363651    9.072723
  Au     9.311775    6.232915    7.201408
  Au     8.892769    7.842344    4.983911
  Au     6.208531    9.453851    8.234679
  Au     4.800359   11.024137    6.520992
  Au     3.307671    9.092769    8.043440
  Au     4.375303    8.247261    5.692337
  Au     6.169701    7.158663    4.019741
  Au     6.889212    9.711962    5.345187
  Fe     6.843050    7.337333    6.565930

 Multiplicity           Mult            ....    3
 Number of Electrons    NEL             ....  254
 Basis Dimension        Dim             ....  525

ORBITAL ENERGIES
----------------
                 SPIN UP ORBITALS
  NO   OCC          E(Eh)            E(eV)
   0   1.0000    -258.336979     -7029.7066
   1   1.0000     -30.897795      -840.7717
   2   1.0000     -26.615991      -724.2579
   3   1.0000     -26.586034      -723.4428
   4   1.0000     -26.585817      -723.4369
   5   1.0000      -4.402186      -119.7896
   6   1.0000      -4.402160      -119.7889
   7   1.0000      -4.401484      -119.7705
   8   1.0000      -4.401456      -119.7697
   9   1.0000      -4.398812      -119.6978
  10   1.0000      -4.398747      -119.6960
  11   1.0000      -4.396139      -119.6250
  12   1.0000      -4.396128      -119.6247
  13   1.0000      -4.392075      -119.5144
  14   1.0000      -4.391947      -119.5109
  15   1.0000      -4.386189      -119.3543
  16   1.0000      -4.386072      -119.3511
  17   1.0000      -3.910030      -106.3973
  18   1.0000      -2.660272       -72.3897
  19   1.0000      -2.598533       -70.7097
  20   1.0000      -2.596587       -70.6567
  21   1.0000      -2.524567       -68.6970
  22   1.0000      -2.524422       -68.6930
  23   1.0000      -2.523257       -68.6613
  24   1.0000      -2.523247       -68.6610
  25   1.0000      -2.521388       -68.6104
  26   1.0000      -2.521202       -68.6054
  27   1.0000      -2.520825       -68.5951
  28   1.0000      -2.520487       -68.5859
  29   1.0000      -2.517365       -68.5010
  30   1.0000      -2.517320       -68.4998
  31   1.0000      -2.517012       -68.4914
  32   1.0000      -2.516886       -68.4879
  33   1.0000      -2.516612       -68.4805
  34   1.0000      -2.516319       -68.4725
  35   1.0000      -2.516142       -68.4677
  36   1.0000      -2.515246       -68.4433
  37   1.0000      -2.514736       -68.4294
  38   1.0000      -2.514611       -68.4261
  39   1.0000      -2.513770       -68.4032
  40   1.0000      -2.513241       -68.3888
  41   1.0000      -2.512846       -68.3780
  42   1.0000      -2.512800       -68.3768
  43   1.0000      -2.511143       -68.3317
  44   1.0000      -2.511060       -68.3294
  45   1.0000      -2.510043       -68.3017
  46   1.0000      -2.509133       -68.2770
  47   1.0000      -2.509106       -68.2762
  48   1.0000      -2.507874       -68.2427
  49   1.0000      -2.506880       -68.2157
  50   1.0000      -2.506244       -68.1984
  51   1.0000      -2.504831       -68.1599
  52   1.0000      -2.504762       -68.1580
  53   1.0000      -2.504077       -68.1394
  54   1.0000      -2.501723       -68.0753
  55   1.0000      -2.500888       -68.0526
  56   1.0000      -2.500319       -68.0371
  57   1.0000      -0.563600       -15.3363
  58   1.0000      -0.558924       -15.2091
  59   1.0000      -0.552913       -15.0455
  60   1.0000      -0.533518       -14.5178
  61   1.0000      -0.501815       -13.6551
  62   1.0000      -0.501486       -13.6461
  63   1.0000      -0.473349       -12.8805
  64   1.0000      -0.466271       -12.6879
  65   1.0000      -0.465283       -12.6610
  66   1.0000      -0.461850       -12.5676
  67   1.0000      -0.456885       -12.4325
  68   1.0000      -0.452706       -12.3188
  69   1.0000      -0.452124       -12.3029
  70   1.0000      -0.448021       -12.1913
  71   1.0000      -0.447008       -12.1637
  72   1.0000      -0.441195       -12.0055
  73   1.0000      -0.440812       -11.9951
  74   1.0000      -0.440278       -11.9806
  75   1.0000      -0.435984       -11.8637
  76   1.0000      -0.434475       -11.8227
  77   1.0000      -0.430663       -11.7189
  78   1.0000      -0.429253       -11.6806
  79   1.0000      -0.427174       -11.6240
  80   1.0000      -0.426239       -11.5986
  81   1.0000      -0.424113       -11.5407
  82   1.0000      -0.420882       -11.4528
  83   1.0000      -0.417174       -11.3519
  84   1.0000      -0.416967       -11.3463
  85   1.0000      -0.409617       -11.1462
  86   1.0000      -0.407204       -11.0806
  87   1.0000      -0.402289       -10.9468
  88   1.0000      -0.397878       -10.8268
  89   1.0000      -0.394222       -10.7273
  90   1.0000      -0.391421       -10.6511
  91   1.0000      -0.388864       -10.5815
  92   1.0000      -0.387661       -10.5488
  93   1.0000      -0.387185       -10.5358
  94   1.0000      -0.383923       -10.4471
  95   1.0000      -0.380331       -10.3493
  96   1.0000      -0.379858       -10.3365
  97   1.0000      -0.376240       -10.2380
  98   1.0000      -0.372428       -10.1343
  99   1.0000      -0.372122       -10.1259
 100   1.0000      -0.370546       -10.0831
 101   1.0000      -0.368866       -10.0374
 102   1.0000      -0.368164       -10.0183
 103   1.0000      -0.365299        -9.9403
 104   1.0000      -0.364489        -9.9182
 105   1.0000      -0.362604        -9.8669
 106   1.0000      -0.361114        -9.8264
 107   1.0000      -0.358917        -9.7666
 108   1.0000      -0.358715        -9.7611
 109   1.0000      -0.357572        -9.7300
 110   1.0000      -0.356954        -9.7132
 111   1.0000      -0.355230        -9.6663
 112   1.0000      -0.350989        -9.5509
 113   1.0000      -0.349210        -9.5025
 114   1.0000      -0.346137        -9.4189
 115   1.0000      -0.344193        -9.3660
 116   1.0000      -0.341402        -9.2900
 117   1.0000      -0.341308        -9.2875
 118   1.0000      -0.336033        -9.1439
 119   1.0000      -0.335820        -9.1381
 120   1.0000      -0.332089        -9.0366
 121   1.0000      -0.330400        -8.9906
 122   1.0000      -0.325419        -8.8551
 123   1.0000      -0.320812        -8.7297
 124   1.0000      -0.300848        -8.1865
 125   1.0000      -0.249585        -6.7915
 126   1.0000      -0.235292        -6.4026
 127   1.0000      -0.218158        -5.9364
 128   0.0000      -0.114669        -3.1203
 129   0.0000      -0.111056        -3.0220
 130   0.0000      -0.087286        -2.3752
 131   0.0000      -0.063119        -1.7175
 132   0.0000      -0.054696        -1.4884

                 SPIN DOWN ORBITALS
  NO   OCC          E(Eh)            E(eV)
   0   1.0000    -258.334926     -7029.6507
   1   1.0000     -30.806108      -838.2768
   2   1.0000     -26.517650      -721.5819
   3   1.0000     -26.509760      -721.3672
   4   1.0000     -26.509273      -721.3540
   5   1.0000      -4.402356      -119.7942
   6   1.0000      -4.402331      -119.7935
   7   1.0000      -4.401735      -119.7773
   8   1.0000      -4.401704      -119.7764
   9   1.0000      -4.399443      -119.7149
  10   1.0000      -4.399380      -119.7132
  11   1.0000      -4.396485      -119.6344
  12   1.0000      -4.396479      -119.6343
  13   1.0000      -4.393321      -119.5484
  14   1.0000      -4.393199      -119.5450
  15   1.0000      -4.386578      -119.3648
  16   1.0000      -4.386460      -119.3616
  17   1.0000      -3.668117       -99.8145
  18   1.0000      -2.523848       -68.6774
  19   1.0000      -2.523807       -68.6763
  20   1.0000      -2.522394       -68.6378
  21   1.0000      -2.522186       -68.6322
  22   1.0000      -2.520511       -68.5866
  23   1.0000      -2.520479       -68.5857
  24   1.0000      -2.520306       -68.5810
  25   1.0000      -2.520148       -68.5767
  26   1.0000      -2.517330       -68.5000
  27   1.0000      -2.517205       -68.4966
  28   1.0000      -2.516695       -68.4827
  29   1.0000      -2.516656       -68.4817
  30   1.0000      -2.515995       -68.4637
  31   1.0000      -2.515758       -68.4573
  32   1.0000      -2.515727       -68.4564
  33   1.0000      -2.515232       -68.4430
  34   1.0000      -2.515047       -68.4379
  35   1.0000      -2.514994       -68.4365
  36   1.0000      -2.513754       -68.4027
  37   1.0000      -2.513525       -68.3965
  38   1.0000      -2.513368       -68.3922
  39   1.0000      -2.513228       -68.3884
  40   1.0000      -2.511354       -68.3374
  41   1.0000      -2.511318       -68.3364
  42   1.0000      -2.510805       -68.3225
  43   1.0000      -2.509965       -68.2996
  44   1.0000      -2.509868       -68.2970
  45   1.0000      -2.508751       -68.2666
  46   1.0000      -2.507780       -68.2402
  47   1.0000      -2.507276       -68.2265
  48   1.0000      -2.505550       -68.1795
  49   1.0000      -2.505378       -68.1748
  50   1.0000      -2.504117       -68.1405
  51   1.0000      -2.502283       -68.0906
  52   1.0000      -2.501898       -68.0801
  53   1.0000      -2.501050       -68.0570
  54   1.0000      -2.346981       -63.8646
  55   1.0000      -2.346849       -63.8610
  56   1.0000      -2.333026       -63.4849
  57   1.0000      -0.509645       -13.8681
  58   1.0000      -0.477199       -12.9852
  59   1.0000      -0.473265       -12.8782
  60   1.0000      -0.467941       -12.7333
  61   1.0000      -0.466115       -12.6836
  62   1.0000      -0.465232       -12.6596
  63   1.0000      -0.463727       -12.6187
  64   1.0000      -0.456879       -12.4323
  65   1.0000      -0.454804       -12.3758
  66   1.0000      -0.453006       -12.3269
  67   1.0000      -0.450363       -12.2550
  68   1.0000      -0.449906       -12.2426
  69   1.0000      -0.447504       -12.1772
  70   1.0000      -0.442412       -12.0386
  71   1.0000      -0.439020       -11.9463
  72   1.0000      -0.438772       -11.9396
  73   1.0000      -0.432947       -11.7811
  74   1.0000      -0.431627       -11.7452
  75   1.0000      -0.430778       -11.7221
  76   1.0000      -0.427496       -11.6328
  77   1.0000      -0.426752       -11.6125
  78   1.0000      -0.422386       -11.4937
  79   1.0000      -0.422377       -11.4935
  80   1.0000      -0.419737       -11.4216
  81   1.0000      -0.414413       -11.2768
  82   1.0000      -0.413837       -11.2611
  83   1.0000      -0.409915       -11.1544
  84   1.0000      -0.404968       -11.0197
  85   1.0000      -0.397427       -10.8145
  86   1.0000      -0.393399       -10.7049
  87   1.0000      -0.392705       -10.6860
  88   1.0000      -0.389625       -10.6022
  89   1.0000      -0.388408       -10.5691
  90   1.0000      -0.384900       -10.4737
  91   1.0000      -0.383164       -10.4264
  92   1.0000      -0.381553       -10.3826
  93   1.0000      -0.380145       -10.3443
  94   1.0000      -0.378373       -10.2961
  95   1.0000      -0.375138       -10.2080
  96   1.0000      -0.374493       -10.1905
  97   1.0000      -0.371876       -10.1193
  98   1.0000      -0.370531       -10.0826
  99   1.0000      -0.366839        -9.9822
 100   1.0000      -0.365561        -9.9474
 101   1.0000      -0.363205        -9.8833
 102   1.0000      -0.361550        -9.8383
 103   1.0000      -0.360764        -9.8169
 104   1.0000      -0.360206        -9.8017
 105   1.0000      -0.358471        -9.7545
 106   1.0000      -0.357427        -9.7261
 107   1.0000      -0.354692        -9.6517
 108   1.0000      -0.350944        -9.5497
 109   1.0000      -0.349926        -9.5220
 110   1.0000      -0.348285        -9.4773
 111   1.0000      -0.345085        -9.3902
 112   1.0000      -0.344989        -9.3876
 113   1.0000      -0.339748        -9.2450
 114   1.0000      -0.339346        -9.2341
 115   1.0000      -0.336681        -9.1616
 116   1.0000      -0.333492        -9.0748
 117   1.0000      -0.329935        -8.9780
 118   1.0000      -0.329474        -8.9655
 119   1.0000      -0.322523        -8.7763
 120   1.0000      -0.313875        -8.5410
 121   1.0000      -0.275643        -7.5006
 122   1.0000      -0.243822        -6.6347
 123   1.0000      -0.228777        -6.2253
 124   1.0000      -0.218902        -5.9566
 125   1.0000      -0.201323        -5.4783
 126   0.0000      -0.093386        -2.5412
 127   0.0000      -0.070364        -1.9147
 128   0.0000      -0.058235        -1.5847
 129   0.0000      -0.051661        -1.4058
 130   0.0000      -0.051022        -1.3884

MULLIKEN ATOMIC CHARGES AND SPIN POPULATIONS
--------------------------------------------
   0 Au:   -0.008474   -0.121774
   1 Au:    0.212340   -0.255139
   2 Au:    0.205644   -0.060062
   3 Au:    0.267520   -0.149659
   4 Au:    0.212035   -0.255567
   5 Au:    0.205986   -0.059908
   6 Au:   -0.057094   -0.279983
   7 Au:    0.299218    0.054219
   8 Au:    0.298892    0.053924
   9 Au:   -0.056545   -0.280139
  10 Au:    0.266921   -0.148959
  11 Au:   -0.008197   -0.121842
  12 Fe:   -1.838246    3.624889
Sum of atomic charges         :   -0.0000000

LOEWDIN ATOMIC CHARGES AND SPIN POPULATIONS
-------------------------------------------
   0 Au:    0.000025   -0.102004
   1 Au:    0.014743   -0.181581
   2 Au:    0.049313   -0.117626
   3 Au:    0.083576   -0.181690
   4 Au:    0.014917   -0.182117
   5 Au:    0.049468   -0.117425
   6 Au:   -0.061838   -0.143703
   7 Au:    0.061035   -0.014051
   8 Au:    0.060852   -0.014199
   9 Au:   -0.062010   -0.143883
  10 Au:    0.083894   -0.181348
  11 Au:   -0.000128   -0.102023
  12 Fe:   -0.293846    3.481650

  Mayer bond orders larger than 0.100000
B(  0-Au,  2-Au) :   0.2394 B(  0-Au,  6-Au) :   0.1212 B(  0-Au,  8-Au) :   0.3845
B(  0-Au,  9-Au) :   0.1592 B(  0-Au, 12-Fe) :   0.5307 B(  1-Au,  2-Au) :   0.2069
B(  1-Au,  4-Au) :   0.1584 B(  1-Au,  5-Au) :   0.1188 B(  1-Au, 10-Au) :   0.2158
B(  1-Au, 12-Fe) :   0.3579 B(  2-Au,  4-Au) :   0.1186 B(  2-Au,  5-Au) :   0.1059
B(  2-Au, 12-Fe) :   0.4994 B(  3-Au,  4-Au) :   0.2170 B(  3-Au,  6-Au) :   0.3482
B(  3-Au, 12-Fe) :   0.5087 B(  4-Au,  5-Au) :   0.2069 B(  4-Au, 12-Fe) :   0.3561
B(  5-Au, 11-Au) :   0.2391 B(  5-Au, 12-Fe) :   0.5006 B(  6-Au,  7-Au) :   0.3747
B(  6-Au,  8-Au) :   0.1621 B(  6-Au,  9-Au) :   0.1057 B(  6-Au, 11-Au) :   0.1597
B(  6-Au, 12-Fe) :   0.3406 B(  7-Au,  8-Au) :   0.1284 B(  7-Au,  9-Au) :   0.1624
B(  7-Au, 11-Au) :   0.3848 B(  8-Au,  9-Au) :   0.3756 B(  9-Au, 10-Au) :   0.3491
B(  9-Au, 11-Au) :   0.1212 B(  9-Au, 12-Fe) :   0.3389 B( 10-Au, 12-Fe) :   0.5098
B( 11-Au, 12-Fe) :   0.5303

MP2 TOTAL ENERGY:    -2890.522768996 Eh
FINAL SINGLE POINT ENERGY     -2890.522768995836

DIPOLE MOMENT
-------------
                                X             Y             Z
Electronic contribution:    -16.37227      15.97376       4.22405
Nuclear contribution   :     16.37982     -15.98027      -4.22602
                        -----------------------------------------
Total Dipole Moment    :      0.00755      -0.00652      -0.00197
                        -----------------------------------------
Magnitude (a.u.)       :      0.01017
Magnitude (Debye)      :      0.02584

Rotational constants in cm-1:     0.001770     0.001155     0.001000
Rotational constants in MHz :    53.068069    34.613082    29.974179

                             ****ORCA TERMINATED NORMALLY****
TOTAL RUN TIME: 0 days 1 hours 11 minutes 56 seconds 492 msec
