                         Program Version 5.0.3 -  RELEASE  -
|  1> !PBE def2-TZVP VERYSLOWCONV
|  2>
|  3> %scf
|  4>   AutoTRAHIter 200
|  5>   maxiter 400
|  6> end
|  7>
|  8>
|  9> %pal nprocs 6 end
| 10>
| 11> *xyzfile 0 5 pbe.xyz
| 12>
| 13> $new_job
| 14>
| 15> !PBE def2-TZVP VERYSLOWCONV
| 16>
| 17> %scf
| 18>   AutoTRAHIter 200
| 19>   maxiter 400
| 20> end
| 21>
| 22>
| 23> %pal nprocs 6 end
| 24>
| 25> *xyzfile 0 3 pbe.xyz
| 26>
| 27>
| 28>
| 29>
| 30>
| 31>                          ****END OF INPUT****
 Total Charge           Charge          ....    0
 Multiplicity           Mult            ....    5
 Number of Electrons    NEL             ....  254
FINAL SINGLE POINT ENERGY     -2893.394711949953

CARTESIAN COORDINATES (ANGSTROEM)
---------------------------------
  Au     4.858170    6.854492    8.286054
  Au     7.727526    5.172268    5.072792
  Au     6.739658    4.933071    7.650575
  Au     7.670542    7.363651    9.072723
  Au     9.311775    6.232915    7.201408
  Au     8.892769    7.842344    4.983911
  Au     6.208531    9.453851    8.234679
  Au     4.800359   11.024137    6.520992
  Au     3.307671    9.092769    8.043440
  Au     4.375303    8.247261    5.692337
  Au     6.169701    7.158663    4.019741
  Au     6.889212    9.711962    5.345187
  Fe     6.843050    7.337333    6.565930

 Multiplicity           Mult            ....    3
 Number of Electrons    NEL             ....  254
 Basis Dimension        Dim             ....  525

ORBITAL ENERGIES
----------------
                 SPIN UP ORBITALS
  NO   OCC          E(Eh)            E(eV)
   0   1.0000    -254.750808     -6932.1219
   1   1.0000     -29.588209      -805.1361
   2   1.0000     -25.537054      -694.8986
   3   1.0000     -25.518266      -694.3873
   4   1.0000     -25.516403      -694.3366
   5   1.0000      -4.028615      -109.6242
   6   1.0000      -4.028545      -109.6223
   7   1.0000      -4.027137      -109.5840
   8   1.0000      -4.027107      -109.5832
   9   1.0000      -4.024698      -109.5176
  10   1.0000      -4.024667      -109.5168
  11   1.0000      -4.021557      -109.4321
  12   1.0000      -4.021544      -109.4318
  13   1.0000      -4.020730      -109.4096
  14   1.0000      -4.020593      -109.4059
  15   1.0000      -4.017128      -109.3116
  16   1.0000      -4.017047      -109.3094
  17   1.0000      -3.363472       -91.5247
  18   1.0000      -2.247230       -61.1502
  19   1.0000      -2.247148       -61.1480
  20   1.0000      -2.244274       -61.0698
  21   1.0000      -2.244188       -61.0675
  22   1.0000      -2.242287       -61.0157
  23   1.0000      -2.241627       -60.9978
  24   1.0000      -2.240928       -60.9787
  25   1.0000      -2.240535       -60.9681
  26   1.0000      -2.240367       -60.9635
  27   1.0000      -2.240281       -60.9611
  28   1.0000      -2.239282       -60.9340
  29   1.0000      -2.239259       -60.9333
  30   1.0000      -2.238104       -60.9019
  31   1.0000      -2.237734       -60.8918
  32   1.0000      -2.237345       -60.8813
  33   1.0000      -2.237237       -60.8783
  34   1.0000      -2.236428       -60.8563
  35   1.0000      -2.236021       -60.8452
  36   1.0000      -2.235015       -60.8178
  37   1.0000      -2.234963       -60.8164
  38   1.0000      -2.234902       -60.8148
  39   1.0000      -2.234454       -60.8026
  40   1.0000      -2.234107       -60.7931
  41   1.0000      -2.233477       -60.7760
  42   1.0000      -2.233066       -60.7648
  43   1.0000      -2.232712       -60.7552
  44   1.0000      -2.232026       -60.7365
  45   1.0000      -2.231921       -60.7337
  46   1.0000      -2.231523       -60.7228
  47   1.0000      -2.230676       -60.6998
  48   1.0000      -2.230347       -60.6908
  49   1.0000      -2.230170       -60.6860
  50   1.0000      -2.229689       -60.6729
  51   1.0000      -2.229024       -60.6548
  52   1.0000      -2.227628       -60.6168
  53   1.0000      -2.227345       -60.6091
  54   1.0000      -2.204252       -59.9807
  55   1.0000      -2.164510       -58.8993
  56   1.0000      -2.162291       -58.8389
  57   1.0000      -0.426107       -11.5949
  58   1.0000      -0.390116       -10.6156
  59   1.0000      -0.378498       -10.2994
  60   1.0000      -0.374463       -10.1897
  61   1.0000      -0.373116       -10.1530
  62   1.0000      -0.369540       -10.0557
  63   1.0000      -0.363277        -9.8853
  64   1.0000      -0.359432        -9.7806
  65   1.0000      -0.350753        -9.5445
  66   1.0000      -0.349761        -9.5175
  67   1.0000      -0.345648        -9.4055
  68   1.0000      -0.345267        -9.3952
  69   1.0000      -0.341881        -9.3031
  70   1.0000      -0.338105        -9.2003
  71   1.0000      -0.335301        -9.1240
  72   1.0000      -0.333825        -9.0838
  73   1.0000      -0.330310        -8.9882
  74   1.0000      -0.329801        -8.9743
  75   1.0000      -0.327477        -8.9111
  76   1.0000      -0.324591        -8.8326
  77   1.0000      -0.323719        -8.8088
  78   1.0000      -0.320883        -8.7317
  79   1.0000      -0.318623        -8.6702
  80   1.0000      -0.317452        -8.6383
  81   1.0000      -0.314805        -8.5663
  82   1.0000      -0.313936        -8.5426
  83   1.0000      -0.310391        -8.4462
  84   1.0000      -0.306804        -8.3486
  85   1.0000      -0.304223        -8.2783
  86   1.0000      -0.299688        -8.1549
  87   1.0000      -0.293740        -7.9931
  88   1.0000      -0.291624        -7.9355
  89   1.0000      -0.290229        -7.8975
  90   1.0000      -0.287068        -7.8115
  91   1.0000      -0.285288        -7.7631
  92   1.0000      -0.284212        -7.7338
  93   1.0000      -0.283039        -7.7019
  94   1.0000      -0.280344        -7.6286
  95   1.0000      -0.276573        -7.5259
  96   1.0000      -0.274709        -7.4752
  97   1.0000      -0.273663        -7.4467
  98   1.0000      -0.271811        -7.3963
  99   1.0000      -0.270172        -7.3518
 100   1.0000      -0.269265        -7.3271
 101   1.0000      -0.267574        -7.2811
 102   1.0000      -0.266117        -7.2414
 103   1.0000      -0.265208        -7.2167
 104   1.0000      -0.263738        -7.1767
 105   1.0000      -0.261976        -7.1287
 106   1.0000      -0.260576        -7.0906
 107   1.0000      -0.258234        -7.0269
 108   1.0000      -0.257419        -7.0047
 109   1.0000      -0.256674        -6.9845
 110   1.0000      -0.255215        -6.9447
 111   1.0000      -0.253229        -6.8907
 112   1.0000      -0.252822        -6.8796
 113   1.0000      -0.249637        -6.7930
 114   1.0000      -0.248918        -6.7734
 115   1.0000      -0.248397        -6.7592
 116   1.0000      -0.246612        -6.7107
 117   1.0000      -0.245354        -6.6764
 118   1.0000      -0.242359        -6.5949
 119   1.0000      -0.242099        -6.5879
 120   1.0000      -0.239836        -6.5263
 121   1.0000      -0.237557        -6.4642
 122   1.0000      -0.236246        -6.4286
 123   1.0000      -0.232527        -6.3274
 124   1.0000      -0.229856        -6.2547
 125   1.0000      -0.222584        -6.0568
 126   1.0000      -0.210244        -5.7210
 127   1.0000      -0.199016        -5.4155
 128   0.0000      -0.179710        -4.8902
 129   0.0000      -0.172618        -4.6972
 130   0.0000      -0.146578        -3.9886
 131   0.0000      -0.127627        -3.4729
 132   0.0000      -0.119219        -3.2441

                 SPIN DOWN ORBITALS
  NO   OCC          E(Eh)            E(eV)
   0   1.0000    -254.750156     -6932.1042
   1   1.0000     -29.533238      -803.6403
   2   1.0000     -25.488770      -693.5847
   3   1.0000     -25.479925      -693.3440
   4   1.0000     -25.478493      -693.3050
   5   1.0000      -4.028353      -109.6171
   6   1.0000      -4.028288      -109.6153
   7   1.0000      -4.027103      -109.5831
   8   1.0000      -4.027074      -109.5823
   9   1.0000      -4.025004      -109.5259
  10   1.0000      -4.024973      -109.5251
  11   1.0000      -4.021676      -109.4354
  12   1.0000      -4.021663      -109.4350
  13   1.0000      -4.020975      -109.4163
  14   1.0000      -4.020845      -109.4128
  15   1.0000      -4.017614      -109.3248
  16   1.0000      -4.017534      -109.3226
  17   1.0000      -3.239058       -88.1392
  18   1.0000      -2.247013       -61.1443
  19   1.0000      -2.246931       -61.1421
  20   1.0000      -2.244093       -61.0649
  21   1.0000      -2.244034       -61.0633
  22   1.0000      -2.241632       -60.9979
  23   1.0000      -2.240996       -60.9806
  24   1.0000      -2.240410       -60.9646
  25   1.0000      -2.240291       -60.9614
  26   1.0000      -2.240186       -60.9586
  27   1.0000      -2.239853       -60.9495
  28   1.0000      -2.239573       -60.9419
  29   1.0000      -2.239552       -60.9413
  30   1.0000      -2.237790       -60.8934
  31   1.0000      -2.237730       -60.8917
  32   1.0000      -2.237277       -60.8794
  33   1.0000      -2.236766       -60.8655
  34   1.0000      -2.236115       -60.8478
  35   1.0000      -2.236062       -60.8463
  36   1.0000      -2.235537       -60.8320
  37   1.0000      -2.235399       -60.8283
  38   1.0000      -2.234744       -60.8105
  39   1.0000      -2.234620       -60.8071
  40   1.0000      -2.234461       -60.8028
  41   1.0000      -2.234015       -60.7906
  42   1.0000      -2.233615       -60.7797
  43   1.0000      -2.233220       -60.7690
  44   1.0000      -2.232714       -60.7552
  45   1.0000      -2.232577       -60.7515
  46   1.0000      -2.232095       -60.7384
  47   1.0000      -2.231011       -60.7089
  48   1.0000      -2.230911       -60.7062
  49   1.0000      -2.230721       -60.7010
  50   1.0000      -2.230338       -60.6906
  51   1.0000      -2.229373       -60.6643
  52   1.0000      -2.228282       -60.6346
  53   1.0000      -2.227942       -60.6254
  54   1.0000      -2.062346       -56.1193
  55   1.0000      -2.052612       -55.8544
  56   1.0000      -2.051253       -55.8174
  57   1.0000      -0.422520       -11.4974
  58   1.0000      -0.389744       -10.6055
  59   1.0000      -0.378319       -10.2946
  60   1.0000      -0.372261       -10.1297
  61   1.0000      -0.367745       -10.0069
  62   1.0000      -0.362445        -9.8626
  63   1.0000      -0.361215        -9.8292
  64   1.0000      -0.356988        -9.7141
  65   1.0000      -0.349257        -9.5038
  66   1.0000      -0.346096        -9.4178
  67   1.0000      -0.345442        -9.4000
  68   1.0000      -0.345020        -9.3885
  69   1.0000      -0.341442        -9.2911
  70   1.0000      -0.336336        -9.1522
  71   1.0000      -0.334660        -9.1066
  72   1.0000      -0.333260        -9.0685
  73   1.0000      -0.329518        -8.9666
  74   1.0000      -0.325635        -8.8610
  75   1.0000      -0.325261        -8.8508
  76   1.0000      -0.324979        -8.8431
  77   1.0000      -0.320571        -8.7232
  78   1.0000      -0.318181        -8.6581
  79   1.0000      -0.316964        -8.6250
  80   1.0000      -0.314553        -8.5594
  81   1.0000      -0.314390        -8.5550
  82   1.0000      -0.312133        -8.4936
  83   1.0000      -0.309356        -8.4180
  84   1.0000      -0.306707        -8.3459
  85   1.0000      -0.298471        -8.1218
  86   1.0000      -0.297242        -8.0884
  87   1.0000      -0.291775        -7.9396
  88   1.0000      -0.289993        -7.8911
  89   1.0000      -0.288077        -7.8390
  90   1.0000      -0.287726        -7.8294
  91   1.0000      -0.284754        -7.7486
  92   1.0000      -0.282992        -7.7006
  93   1.0000      -0.280679        -7.6377
  94   1.0000      -0.278760        -7.5854
  95   1.0000      -0.276626        -7.5274
  96   1.0000      -0.274473        -7.4688
  97   1.0000      -0.274171        -7.4606
  98   1.0000      -0.271590        -7.3903
  99   1.0000      -0.268997        -7.3198
 100   1.0000      -0.268858        -7.3160
 101   1.0000      -0.267689        -7.2842
 102   1.0000      -0.266793        -7.2598
 103   1.0000      -0.265547        -7.2259
 104   1.0000      -0.264313        -7.1923
 105   1.0000      -0.260906        -7.0996
 106   1.0000      -0.260585        -7.0909
 107   1.0000      -0.258637        -7.0379
 108   1.0000      -0.257103        -6.9961
 109   1.0000      -0.255773        -6.9599
 110   1.0000      -0.255343        -6.9482
 111   1.0000      -0.251246        -6.8368
 112   1.0000      -0.251162        -6.8345
 113   1.0000      -0.249915        -6.8005
 114   1.0000      -0.248936        -6.7739
 115   1.0000      -0.246447        -6.7062
 116   1.0000      -0.243660        -6.6303
 117   1.0000      -0.243013        -6.6127
 118   1.0000      -0.240866        -6.5543
 119   1.0000      -0.234505        -6.3812
 120   1.0000      -0.226311        -6.1582
 121   1.0000      -0.216506        -5.8914
 122   1.0000      -0.207024        -5.6334
 123   1.0000      -0.197538        -5.3753
 124   1.0000      -0.194138        -5.2828
 125   1.0000      -0.175144        -4.7659
 126   0.0000      -0.165223        -4.4960
 127   0.0000      -0.158699        -4.3184
 128   0.0000      -0.154347        -4.2000
 129   0.0000      -0.140296        -3.8176
 130   0.0000      -0.134607        -3.6628

MULLIKEN ATOMIC CHARGES AND SPIN POPULATIONS
--------------------------------------------
   0 Au:    0.026668   -0.065178
   1 Au:    0.259925   -0.116869
   2 Au:    0.267079   -0.038870
   3 Au:    0.298668   -0.110298
   4 Au:    0.259439   -0.117305
   5 Au:    0.267212   -0.038780
   6 Au:   -0.003388   -0.116939
   7 Au:    0.310186    0.031154
   8 Au:    0.309759    0.030966
   9 Au:   -0.003039   -0.117288
  10 Au:    0.298537   -0.109996
  11 Au:    0.026901   -0.065123
  12 Fe:   -2.317948    2.834527
Sum of atomic charges         :   -0.0000000

LOEWDIN ATOMIC CHARGES AND SPIN POPULATIONS
-------------------------------------------
   0 Au:    0.032185   -0.062570
   1 Au:    0.047381   -0.097765
   2 Au:    0.076771   -0.075326
   3 Au:    0.106097   -0.127913
   4 Au:    0.047424   -0.098169
   5 Au:    0.076961   -0.075154
   6 Au:   -0.013691   -0.063540
   7 Au:    0.055296   -0.004374
   8 Au:    0.055193   -0.004479
   9 Au:   -0.013897   -0.063795
  10 Au:    0.106455   -0.127847
  11 Au:    0.032085   -0.062528
  12 Fe:   -0.608260    2.863459

  Mayer bond orders larger than 0.100000
B(  0-Au,  2-Au) :   0.2537 B(  0-Au,  3-Au) :   0.1177 B(  0-Au,  6-Au) :   0.1562
B(  0-Au,  8-Au) :   0.3978 B(  0-Au,  9-Au) :   0.1682 B(  0-Au, 12-Fe) :   0.5801
B(  1-Au,  2-Au) :   0.2478 B(  1-Au,  4-Au) :   0.2036 B(  1-Au,  5-Au) :   0.1479
B(  1-Au, 10-Au) :   0.2408 B(  1-Au, 12-Fe) :   0.4636 B(  2-Au,  4-Au) :   0.1476
B(  2-Au,  5-Au) :   0.1207 B(  2-Au, 12-Fe) :   0.5197 B(  3-Au,  4-Au) :   0.2421
B(  3-Au,  6-Au) :   0.3699 B(  3-Au, 12-Fe) :   0.5298 B(  4-Au,  5-Au) :   0.2477
B(  4-Au, 12-Fe) :   0.4620 B(  5-Au, 11-Au) :   0.2531 B(  5-Au, 12-Fe) :   0.5206
B(  6-Au,  7-Au) :   0.3709 B(  6-Au,  8-Au) :   0.2149 B(  6-Au, 11-Au) :   0.1690
B(  6-Au, 12-Fe) :   0.4792 B(  7-Au,  8-Au) :   0.1963 B(  7-Au,  9-Au) :   0.2151
B(  7-Au, 11-Au) :   0.3982 B(  7-Au, 12-Fe) :   0.1072 B(  8-Au,  9-Au) :   0.3716
B(  8-Au, 12-Fe) :   0.1072 B(  9-Au, 10-Au) :   0.3708 B(  9-Au, 11-Au) :   0.1562
B(  9-Au, 12-Fe) :   0.4777 B( 10-Au, 11-Au) :   0.1176 B( 10-Au, 12-Fe) :   0.5306
B( 11-Au, 12-Fe) :   0.5800

FINAL SINGLE POINT ENERGY     -2893.388643880082

DIPOLE MOMENT
-------------
                                X             Y             Z
Electronic contribution:    -16.38482      15.98597       4.22738
Nuclear contribution   :     16.37982     -15.98027      -4.22602
                        -----------------------------------------
Total Dipole Moment    :     -0.00500       0.00570       0.00136
                        -----------------------------------------
Magnitude (a.u.)       :      0.00770
Magnitude (Debye)      :      0.01957

Rotational constants in cm-1:     0.001770     0.001155     0.001000
Rotational constants in MHz :    53.068069    34.613082    29.974179

                             ****ORCA TERMINATED NORMALLY****
TOTAL RUN TIME: 0 days 0 hours 30 minutes 39 seconds 874 msec
