                         Program Version 5.0.3 -  RELEASE  -
|  1> !R2SCAN def2-TZVP VERYSLOWCONV
|  2> !KDIIS
|  3> %scf
|  4>   AutoTRAHIter 200
|  5>   maxiter 400
|  6> end
|  7>
|  8> %pal nprocs 6 end
|  9>
| 10> *xyzfile 0 5 pbe.xyz
| 11>
| 12> $new_job
| 13>
| 14> !R2SCAN def2-TZVP VERYSLOWCONV
| 15> !KDIIS
| 16> %scf
| 17>   AutoTRAHIter 200
| 18>   maxiter 400
| 19> end
| 20>
| 21>
| 22> %pal nprocs 6 end
| 23>
| 24> *xyzfile 0 3 pbe.xyz
| 25>
| 26>
| 27>
| 28>
| 29>
| 30>                          ****END OF INPUT****
 Total Charge           Charge          ....    0
 Multiplicity           Mult            ....    5
 Number of Electrons    NEL             ....  254
FINAL SINGLE POINT ENERGY     -2893.821767377139

CARTESIAN COORDINATES (ANGSTROEM)
---------------------------------
  Au     4.858170    6.854492    8.286054
  Au     7.727526    5.172268    5.072792
  Au     6.739658    4.933071    7.650575
  Au     7.670542    7.363651    9.072723
  Au     9.311775    6.232915    7.201408
  Au     8.892769    7.842344    4.983911
  Au     6.208531    9.453851    8.234679
  Au     4.800359   11.024137    6.520992
  Au     3.307671    9.092769    8.043440
  Au     4.375303    8.247261    5.692337
  Au     6.169701    7.158663    4.019741
  Au     6.889212    9.711962    5.345187
  Fe     6.843050    7.337333    6.565930

 Multiplicity           Mult            ....    3
 Number of Electrons    NEL             ....  254
 Basis Dimension        Dim             ....  525

ORBITAL ENERGIES
----------------
                 SPIN UP ORBITALS
  NO   OCC          E(Eh)            E(eV)
   0   1.0000    -255.634244     -6956.1614
   1   1.0000     -29.932865      -814.5147
   2   1.0000     -25.778071      -701.4570
   3   1.0000     -25.758233      -700.9171
   4   1.0000     -25.753777      -700.7959
   5   1.0000      -4.119977      -112.1103
   6   1.0000      -4.119794      -112.1053
   7   1.0000      -4.118483      -112.0696
   8   1.0000      -4.118395      -112.0672
   9   1.0000      -4.116256      -112.0090
  10   1.0000      -4.116232      -112.0084
  11   1.0000      -4.112634      -111.9104
  12   1.0000      -4.112612      -111.9099
  13   1.0000      -4.111950      -111.8918
  14   1.0000      -4.111730      -111.8859
  15   1.0000      -4.108173      -111.7891
  16   1.0000      -4.108056      -111.7859
  17   1.0000      -3.510897       -95.5364
  18   1.0000      -2.311704       -62.9047
  19   1.0000      -2.311421       -62.8970
  20   1.0000      -2.308722       -62.8235
  21   1.0000      -2.308456       -62.8163
  22   1.0000      -2.308012       -62.8042
  23   1.0000      -2.305998       -62.7494
  24   1.0000      -2.305820       -62.7445
  25   1.0000      -2.305248       -62.7290
  26   1.0000      -2.304896       -62.7194
  27   1.0000      -2.304817       -62.7173
  28   1.0000      -2.304529       -62.7094
  29   1.0000      -2.303437       -62.6797
  30   1.0000      -2.303337       -62.6770
  31   1.0000      -2.301832       -62.6360
  32   1.0000      -2.301518       -62.6275
  33   1.0000      -2.301394       -62.6241
  34   1.0000      -2.301314       -62.6219
  35   1.0000      -2.300337       -62.5953
  36   1.0000      -2.299846       -62.5820
  37   1.0000      -2.299206       -62.5646
  38   1.0000      -2.299104       -62.5618
  39   1.0000      -2.299077       -62.5611
  40   1.0000      -2.298295       -62.5398
  41   1.0000      -2.298093       -62.5343
  42   1.0000      -2.297709       -62.5238
  43   1.0000      -2.297178       -62.5094
  44   1.0000      -2.296542       -62.4921
  45   1.0000      -2.295843       -62.4731
  46   1.0000      -2.295722       -62.4698
  47   1.0000      -2.295553       -62.4652
  48   1.0000      -2.294388       -62.4335
  49   1.0000      -2.294212       -62.4287
  50   1.0000      -2.294064       -62.4247
  51   1.0000      -2.293538       -62.4104
  52   1.0000      -2.292653       -62.3863
  53   1.0000      -2.291238       -62.3477
  54   1.0000      -2.290884       -62.3381
  55   1.0000      -2.265943       -61.6594
  56   1.0000      -2.254054       -61.3359
  57   1.0000      -0.432674       -11.7737
  58   1.0000      -0.396273       -10.7831
  59   1.0000      -0.389257       -10.5922
  60   1.0000      -0.388109       -10.5610
  61   1.0000      -0.382847       -10.4178
  62   1.0000      -0.379076       -10.3152
  63   1.0000      -0.374606       -10.1935
  64   1.0000      -0.368981       -10.0405
  65   1.0000      -0.364850        -9.9281
  66   1.0000      -0.359470        -9.7817
  67   1.0000      -0.356396        -9.6980
  68   1.0000      -0.355292        -9.6680
  69   1.0000      -0.351984        -9.5780
  70   1.0000      -0.350010        -9.5243
  71   1.0000      -0.345005        -9.3881
  72   1.0000      -0.344832        -9.3834
  73   1.0000      -0.341553        -9.2941
  74   1.0000      -0.340181        -9.2568
  75   1.0000      -0.337517        -9.1843
  76   1.0000      -0.333837        -9.0842
  77   1.0000      -0.333205        -9.0670
  78   1.0000      -0.330462        -8.9923
  79   1.0000      -0.327956        -8.9241
  80   1.0000      -0.326817        -8.8931
  81   1.0000      -0.326725        -8.8906
  82   1.0000      -0.323476        -8.8022
  83   1.0000      -0.319375        -8.6906
  84   1.0000      -0.319251        -8.6873
  85   1.0000      -0.313948        -8.5430
  86   1.0000      -0.310391        -8.4462
  87   1.0000      -0.303715        -8.2645
  88   1.0000      -0.300611        -8.1800
  89   1.0000      -0.299004        -8.1363
  90   1.0000      -0.296476        -8.0675
  91   1.0000      -0.294330        -8.0091
  92   1.0000      -0.294079        -8.0023
  93   1.0000      -0.292169        -7.9503
  94   1.0000      -0.290034        -7.8922
  95   1.0000      -0.286134        -7.7861
  96   1.0000      -0.283657        -7.7187
  97   1.0000      -0.282332        -7.6826
  98   1.0000      -0.281425        -7.6580
  99   1.0000      -0.279013        -7.5923
 100   1.0000      -0.277807        -7.5595
 101   1.0000      -0.276766        -7.5312
 102   1.0000      -0.274823        -7.4783
 103   1.0000      -0.273996        -7.4558
 104   1.0000      -0.273762        -7.4495
 105   1.0000      -0.271803        -7.3961
 106   1.0000      -0.269875        -7.3437
 107   1.0000      -0.267647        -7.2831
 108   1.0000      -0.266690        -7.2570
 109   1.0000      -0.265513        -7.2250
 110   1.0000      -0.264014        -7.1842
 111   1.0000      -0.262067        -7.1312
 112   1.0000      -0.261862        -7.1256
 113   1.0000      -0.259688        -7.0665
 114   1.0000      -0.257619        -7.0102
 115   1.0000      -0.256302        -6.9743
 116   1.0000      -0.255951        -6.9648
 117   1.0000      -0.253903        -6.9090
 118   1.0000      -0.252901        -6.8818
 119   1.0000      -0.251022        -6.8307
 120   1.0000      -0.250015        -6.8032
 121   1.0000      -0.247672        -6.7395
 122   1.0000      -0.246567        -6.7094
 123   1.0000      -0.243766        -6.6332
 124   1.0000      -0.239710        -6.5228
 125   1.0000      -0.224072        -6.0973
 126   1.0000      -0.213039        -5.7971
 127   1.0000      -0.200743        -5.4625
 128   0.0000      -0.177937        -4.8419
 129   0.0000      -0.171450        -4.6654
 130   0.0000      -0.143184        -3.8962
 131   0.0000      -0.124102        -3.3770
 132   0.0000      -0.113940        -3.1005

                 SPIN DOWN ORBITALS
  NO   OCC          E(Eh)            E(eV)
   0   1.0000    -255.633252     -6956.1344
   1   1.0000     -29.856456      -812.4355
   2   1.0000     -25.710846      -699.6277
   3   1.0000     -25.702878      -699.4109
   4   1.0000     -25.701490      -699.3731
   5   1.0000      -4.119812      -112.1058
   6   1.0000      -4.119648      -112.1013
   7   1.0000      -4.118593      -112.0726
   8   1.0000      -4.118516      -112.0705
   9   1.0000      -4.116756      -112.0226
  10   1.0000      -4.116730      -112.0219
  11   1.0000      -4.112948      -111.9190
  12   1.0000      -4.112926      -111.9184
  13   1.0000      -4.112426      -111.9048
  14   1.0000      -4.112226      -111.8993
  15   1.0000      -4.108648      -111.8020
  16   1.0000      -4.108534      -111.7989
  17   1.0000      -3.342561       -90.9557
  18   1.0000      -2.311146       -62.8895
  19   1.0000      -2.311009       -62.8858
  20   1.0000      -2.308046       -62.8051
  21   1.0000      -2.307945       -62.8024
  22   1.0000      -2.305939       -62.7478
  23   1.0000      -2.305245       -62.7289
  24   1.0000      -2.304640       -62.7124
  25   1.0000      -2.304536       -62.7096
  26   1.0000      -2.304463       -62.7076
  27   1.0000      -2.304117       -62.6982
  28   1.0000      -2.303788       -62.6893
  29   1.0000      -2.303742       -62.6880
  30   1.0000      -2.302012       -62.6409
  31   1.0000      -2.301963       -62.6396
  32   1.0000      -2.301473       -62.6263
  33   1.0000      -2.300765       -62.6070
  34   1.0000      -2.300121       -62.5895
  35   1.0000      -2.299996       -62.5861
  36   1.0000      -2.299868       -62.5826
  37   1.0000      -2.299752       -62.5794
  38   1.0000      -2.298940       -62.5573
  39   1.0000      -2.298899       -62.5562
  40   1.0000      -2.298392       -62.5424
  41   1.0000      -2.298308       -62.5401
  42   1.0000      -2.297829       -62.5271
  43   1.0000      -2.297146       -62.5085
  44   1.0000      -2.296523       -62.4916
  45   1.0000      -2.296379       -62.4876
  46   1.0000      -2.296330       -62.4863
  47   1.0000      -2.295157       -62.4544
  48   1.0000      -2.294853       -62.4461
  49   1.0000      -2.294673       -62.4412
  50   1.0000      -2.294450       -62.4352
  51   1.0000      -2.293075       -62.3978
  52   1.0000      -2.292052       -62.3699
  53   1.0000      -2.291625       -62.3583
  54   1.0000      -2.117360       -57.6163
  55   1.0000      -2.108954       -57.3875
  56   1.0000      -2.103584       -57.2414
  57   1.0000      -0.429911       -11.6985
  58   1.0000      -0.396421       -10.7872
  59   1.0000      -0.386149       -10.5076
  60   1.0000      -0.380811       -10.3624
  61   1.0000      -0.376683       -10.2501
  62   1.0000      -0.371378       -10.1057
  63   1.0000      -0.370546       -10.0831
  64   1.0000      -0.366452        -9.9717
  65   1.0000      -0.358985        -9.7685
  66   1.0000      -0.355753        -9.6805
  67   1.0000      -0.354811        -9.6549
  68   1.0000      -0.354574        -9.6484
  69   1.0000      -0.351344        -9.5606
  70   1.0000      -0.346350        -9.4247
  71   1.0000      -0.344810        -9.3827
  72   1.0000      -0.343076        -9.3356
  73   1.0000      -0.339392        -9.2353
  74   1.0000      -0.335747        -9.1361
  75   1.0000      -0.335115        -9.1189
  76   1.0000      -0.334596        -9.1048
  77   1.0000      -0.330488        -8.9930
  78   1.0000      -0.327711        -8.9175
  79   1.0000      -0.326183        -8.8759
  80   1.0000      -0.324010        -8.8168
  81   1.0000      -0.323005        -8.7894
  82   1.0000      -0.321703        -8.7540
  83   1.0000      -0.318062        -8.6549
  84   1.0000      -0.316310        -8.6072
  85   1.0000      -0.307471        -8.3667
  86   1.0000      -0.305852        -8.3227
  87   1.0000      -0.301551        -8.2056
  88   1.0000      -0.299257        -8.1432
  89   1.0000      -0.297041        -8.0829
  90   1.0000      -0.296758        -8.0752
  91   1.0000      -0.293410        -7.9841
  92   1.0000      -0.292099        -7.9484
  93   1.0000      -0.288852        -7.8601
  94   1.0000      -0.287707        -7.8289
  95   1.0000      -0.286126        -7.7859
  96   1.0000      -0.283447        -7.7130
  97   1.0000      -0.282901        -7.6981
  98   1.0000      -0.280500        -7.6328
  99   1.0000      -0.277573        -7.5531
 100   1.0000      -0.277276        -7.5451
 101   1.0000      -0.276275        -7.5178
 102   1.0000      -0.275512        -7.4971
 103   1.0000      -0.274096        -7.4585
 104   1.0000      -0.273086        -7.4311
 105   1.0000      -0.269634        -7.3371
 106   1.0000      -0.269614        -7.3366
 107   1.0000      -0.267579        -7.2812
 108   1.0000      -0.265610        -7.2276
 109   1.0000      -0.264031        -7.1846
 110   1.0000      -0.263903        -7.1812
 111   1.0000      -0.259667        -7.0659
 112   1.0000      -0.259463        -7.0603
 113   1.0000      -0.258214        -7.0264
 114   1.0000      -0.256927        -6.9913
 115   1.0000      -0.254411        -6.9229
 116   1.0000      -0.251072        -6.8320
 117   1.0000      -0.250346        -6.8123
 118   1.0000      -0.248466        -6.7611
 119   1.0000      -0.242031        -6.5860
 120   1.0000      -0.231781        -6.3071
 121   1.0000      -0.218943        -5.9577
 122   1.0000      -0.208990        -5.6869
 123   1.0000      -0.198121        -5.3911
 124   1.0000      -0.195079        -5.3084
 125   1.0000      -0.182339        -4.9617
 126   0.0000      -0.158383        -4.3098
 127   0.0000      -0.150832        -4.1043
 128   0.0000      -0.144304        -3.9267
 129   0.0000      -0.134327        -3.6552
 130   0.0000      -0.118043        -3.2121

MULLIKEN ATOMIC CHARGES AND SPIN POPULATIONS
--------------------------------------------
   0 Au:    0.016208   -0.092732
   1 Au:    0.235569   -0.154913
   2 Au:    0.230726   -0.057348
   3 Au:    0.277404   -0.131752
   4 Au:    0.234477   -0.157081
   5 Au:    0.230685   -0.057714
   6 Au:    0.006721   -0.149906
   7 Au:    0.275054    0.051715
   8 Au:    0.273789    0.049632
   9 Au:    0.006891   -0.151227
  10 Au:    0.277051   -0.131193
  11 Au:    0.016305   -0.092174
  12 Fe:   -2.080881    3.074693
Sum of atomic charges         :    0.0000000

LOEWDIN ATOMIC CHARGES AND SPIN POPULATIONS
-------------------------------------------
   0 Au:    0.025141   -0.081071
   1 Au:    0.041120   -0.121729
   2 Au:    0.066986   -0.095654
   3 Au:    0.098985   -0.149001
   4 Au:    0.040922   -0.123182
   5 Au:    0.067191   -0.095543
   6 Au:   -0.018408   -0.078457
   7 Au:    0.053147    0.004961
   8 Au:    0.052844    0.003967
   9 Au:   -0.018842   -0.079460
  10 Au:    0.099327   -0.148732
  11 Au:    0.025157   -0.080613
  12 Fe:   -0.533572    3.044513

  Mayer bond orders larger than 0.100000
B(  0-Au,  2-Au) :   0.2569 B(  0-Au,  3-Au) :   0.1000 B(  0-Au,  6-Au) :   0.1296
B(  0-Au,  8-Au) :   0.4022 B(  0-Au,  9-Au) :   0.1476 B(  0-Au, 12-Fe) :   0.5617
B(  1-Au,  2-Au) :   0.2355 B(  1-Au,  4-Au) :   0.1874 B(  1-Au,  5-Au) :   0.1294
B(  1-Au, 10-Au) :   0.2323 B(  1-Au, 12-Fe) :   0.4425 B(  2-Au,  4-Au) :   0.1290
B(  2-Au,  5-Au) :   0.1163 B(  2-Au, 12-Fe) :   0.5059 B(  3-Au,  4-Au) :   0.2343
B(  3-Au,  6-Au) :   0.3794 B(  3-Au, 12-Fe) :   0.5124 B(  4-Au,  5-Au) :   0.2352
B(  4-Au, 12-Fe) :   0.4396 B(  5-Au, 11-Au) :   0.2563 B(  5-Au, 12-Fe) :   0.5064
B(  6-Au,  7-Au) :   0.3692 B(  6-Au,  8-Au) :   0.1967 B(  6-Au, 11-Au) :   0.1490
B(  6-Au, 12-Fe) :   0.4556 B(  7-Au,  8-Au) :   0.1677 B(  7-Au,  9-Au) :   0.1971
B(  7-Au, 11-Au) :   0.4026 B(  8-Au,  9-Au) :   0.3700 B(  9-Au, 10-Au) :   0.3811
B(  9-Au, 11-Au) :   0.1295 B(  9-Au, 12-Fe) :   0.4522 B( 10-Au, 12-Fe) :   0.5134
B( 11-Au, 12-Fe) :   0.5616

FINAL SINGLE POINT ENERGY     -2893.832601134017

DIPOLE MOMENT
-------------
                                X             Y             Z
Electronic contribution:    -16.40452      16.00651       4.23195
Nuclear contribution   :     16.37982     -15.98027      -4.22602
                        -----------------------------------------
Total Dipole Moment    :     -0.02470       0.02623       0.00593
                        -----------------------------------------
Magnitude (a.u.)       :      0.03651
Magnitude (Debye)      :      0.09281

Rotational constants in cm-1:     0.001770     0.001155     0.001000
Rotational constants in MHz :    53.068069    34.613082    29.974179

                             ****ORCA TERMINATED NORMALLY****
TOTAL RUN TIME: 0 days 0 hours 21 minutes 21 seconds 213 msec
