                         Program Version 5.0.3 -  RELEASE  -
|  1> %pal nprocs 16 end
|  2>
|  3> !PBE def2-TZVP OPT UNO
|  4> !SLOWCONV
|  5>
|  6> *xyzfile 0 5 7-1.xyz
|  7>
|  8>                          ****END OF INPUT****
 Total Charge           Charge          ....    0
 Multiplicity           Mult            ....    5
 Number of Electrons    NEL             ....  310
FINAL SINGLE POINT ENERGY     -3188.206416749473
FINAL SINGLE POINT ENERGY     -3188.206686841275
FINAL SINGLE POINT ENERGY     -3188.206844808524
FINAL SINGLE POINT ENERGY     -3188.207239519123
FINAL SINGLE POINT ENERGY     -3188.207781862420
FINAL SINGLE POINT ENERGY     -3188.208507381744
FINAL SINGLE POINT ENERGY     -3188.209218369482
FINAL SINGLE POINT ENERGY     -3188.210148128069
FINAL SINGLE POINT ENERGY     -3188.210850691999
FINAL SINGLE POINT ENERGY     -3188.211491606179
FINAL SINGLE POINT ENERGY     -3188.215000279739
FINAL SINGLE POINT ENERGY     -3188.215044114668
FINAL SINGLE POINT ENERGY     -3188.215116839668
FINAL SINGLE POINT ENERGY     -3188.215118436351
FINAL SINGLE POINT ENERGY     -3188.215150326987
FINAL SINGLE POINT ENERGY     -3188.215161036167
FINAL SINGLE POINT ENERGY     -3188.215168746658
FINAL SINGLE POINT ENERGY     -3188.215171750724
FINAL SINGLE POINT ENERGY     -3188.215173828597
                    ***********************HURRAY********************

CARTESIAN COORDINATES (ANGSTROEM)
---------------------------------
  Au     9.648387    6.649103    8.705769
  Au    10.170215    8.652146    6.871941
  Au     8.073434    4.992802   10.302537
  Au     7.518664    4.766675    7.621167
  Au     8.046179    7.016567    6.149303
  Au     8.743827    9.436902    9.145969
  Au     8.545969    7.654393   11.180633
  Au     7.680865    9.852417    6.562895
  Au     5.880825    8.425069    5.046942
  Au     5.135070    9.067258    7.675589
  Au     6.136085    9.111675   10.539301
  Au     6.591392   11.173917    8.754773
  Au     5.364778    6.340066    6.850582
  Au     4.278282    7.039985    9.306792
  Au     5.974115    6.461812   11.391803
  Mn     7.007591    7.191954    8.854465

 Multiplicity           Mult            ....    5
 Number of Electrons    NEL             ....  310
 Basis Dimension        Dim             ....  645

ORBITAL ENERGIES
----------------
                 SPIN UP ORBITALS
  NO   OCC          E(Eh)            E(eV)
   0   1.0000    -234.203480     -6373.0007
   1   1.0000     -26.897075      -731.9066
   2   1.0000     -23.046801      -627.1353
   3   1.0000     -23.044836      -627.0819
   4   1.0000     -23.044627      -627.0762
   5   1.0000      -4.038898      -109.9040
   6   1.0000      -4.034345      -109.7801
   7   1.0000      -4.034270      -109.7781
   8   1.0000      -4.034193      -109.7760
   9   1.0000      -4.033781      -109.7648
  10   1.0000      -4.033751      -109.7639
  11   1.0000      -4.029076      -109.6367
  12   1.0000      -4.026541      -109.5678
  13   1.0000      -4.024170      -109.5032
  14   1.0000      -4.024136      -109.5023
  15   1.0000      -4.023422      -109.4829
  16   1.0000      -4.023415      -109.4827
  17   1.0000      -4.023388      -109.4820
  18   1.0000      -4.023277      -109.4789
  19   1.0000      -4.015979      -109.2804
  20   1.0000      -3.108910       -84.5977
  21   1.0000      -2.253627       -61.3243
  22   1.0000      -2.251844       -61.2758
  23   1.0000      -2.250351       -61.2352
  24   1.0000      -2.249857       -61.2217
  25   1.0000      -2.249804       -61.2203
  26   1.0000      -2.249695       -61.2173
  27   1.0000      -2.249652       -61.2161
  28   1.0000      -2.248504       -61.1849
  29   1.0000      -2.247811       -61.1660
  30   1.0000      -2.247645       -61.1615
  31   1.0000      -2.247030       -61.1448
  32   1.0000      -2.246849       -61.1399
  33   1.0000      -2.245975       -61.1161
  34   1.0000      -2.245893       -61.1139
  35   1.0000      -2.245183       -61.0945
  36   1.0000      -2.244941       -61.0880
  37   1.0000      -2.243709       -61.0544
  38   1.0000      -2.243400       -61.0460
  39   1.0000      -2.242992       -61.0349
  40   1.0000      -2.242966       -61.0342
  41   1.0000      -2.240884       -60.9775
  42   1.0000      -2.240312       -60.9620
  43   1.0000      -2.239332       -60.9353
  44   1.0000      -2.239240       -60.9328
  45   1.0000      -2.239191       -60.9315
  46   1.0000      -2.238995       -60.9262
  47   1.0000      -2.238365       -60.9090
  48   1.0000      -2.237564       -60.8872
  49   1.0000      -2.237332       -60.8809
  50   1.0000      -2.237238       -60.8783
  51   1.0000      -2.237001       -60.8719
  52   1.0000      -2.236320       -60.8534
  53   1.0000      -2.236134       -60.8483
  54   1.0000      -2.236109       -60.8476
  55   1.0000      -2.235947       -60.8432
  56   1.0000      -2.235024       -60.8181
  57   1.0000      -2.234947       -60.8160
  58   1.0000      -2.234847       -60.8133
  59   1.0000      -2.234045       -60.7914
  60   1.0000      -2.233778       -60.7842
  61   1.0000      -2.233722       -60.7827
  62   1.0000      -2.233217       -60.7689
  63   1.0000      -2.230757       -60.7020
  64   1.0000      -2.229032       -60.6551
  65   1.0000      -2.227519       -60.6139
  66   1.0000      -2.014108       -54.8067
  67   1.0000      -2.010698       -54.7139
  68   1.0000      -2.010048       -54.6962
  69   1.0000      -0.435853       -11.8602
  70   1.0000      -0.394909       -10.7460
  71   1.0000      -0.389563       -10.6006
  72   1.0000      -0.388846       -10.5810
  73   1.0000      -0.379024       -10.3138
  74   1.0000      -0.375078       -10.2064
  75   1.0000      -0.372313       -10.1312
  76   1.0000      -0.372276       -10.1301
  77   1.0000      -0.367025        -9.9873
  78   1.0000      -0.365484        -9.9453
  79   1.0000      -0.361003        -9.8234
  80   1.0000      -0.360411        -9.8073
  81   1.0000      -0.356976        -9.7138
  82   1.0000      -0.353364        -9.6155
  83   1.0000      -0.351918        -9.5762
  84   1.0000      -0.351840        -9.5741
  85   1.0000      -0.349802        -9.5186
  86   1.0000      -0.349489        -9.5101
  87   1.0000      -0.345606        -9.4044
  88   1.0000      -0.342853        -9.3295
  89   1.0000      -0.342360        -9.3161
  90   1.0000      -0.340628        -9.2690
  91   1.0000      -0.336281        -9.1507
  92   1.0000      -0.330388        -8.9903
  93   1.0000      -0.329642        -8.9700
  94   1.0000      -0.328122        -8.9286
  95   1.0000      -0.325666        -8.8618
  96   1.0000      -0.325272        -8.8511
  97   1.0000      -0.324478        -8.8295
  98   1.0000      -0.321939        -8.7604
  99   1.0000      -0.319608        -8.6970
 100   1.0000      -0.317629        -8.6431
 101   1.0000      -0.314332        -8.5534
 102   1.0000      -0.310588        -8.4515
 103   1.0000      -0.310043        -8.4367
 104   1.0000      -0.309637        -8.4257
 105   1.0000      -0.307694        -8.3728
 106   1.0000      -0.306070        -8.3286
 107   1.0000      -0.303459        -8.2575
 108   1.0000      -0.300280        -8.1710
 109   1.0000      -0.299570        -8.1517
 110   1.0000      -0.290850        -7.9144
 111   1.0000      -0.290803        -7.9132
 112   1.0000      -0.289986        -7.8909
 113   1.0000      -0.287618        -7.8265
 114   1.0000      -0.286904        -7.8071
 115   1.0000      -0.285998        -7.7824
 116   1.0000      -0.284218        -7.7340
 117   1.0000      -0.278857        -7.5881
 118   1.0000      -0.277148        -7.5416
 119   1.0000      -0.276931        -7.5357
 120   1.0000      -0.274792        -7.4775
 121   1.0000      -0.272845        -7.4245
 122   1.0000      -0.272244        -7.4081
 123   1.0000      -0.270662        -7.3651
 124   1.0000      -0.270351        -7.3566
 125   1.0000      -0.268660        -7.3106
 126   1.0000      -0.267868        -7.2891
 127   1.0000      -0.265858        -7.2344
 128   1.0000      -0.265693        -7.2299
 129   1.0000      -0.264041        -7.1849
 130   1.0000      -0.263759        -7.1773
 131   1.0000      -0.263091        -7.1591
 132   1.0000      -0.261377        -7.1124
 133   1.0000      -0.259757        -7.0683
 134   1.0000      -0.256989        -6.9930
 135   1.0000      -0.256006        -6.9663
 136   1.0000      -0.255313        -6.9474
 137   1.0000      -0.254499        -6.9253
 138   1.0000      -0.251842        -6.8530
 139   1.0000      -0.251573        -6.8456
 140   1.0000      -0.250269        -6.8102
 141   1.0000      -0.249538        -6.7903
 142   1.0000      -0.248472        -6.7613
 143   1.0000      -0.248247        -6.7552
 144   1.0000      -0.245487        -6.6800
 145   1.0000      -0.244677        -6.6580
 146   1.0000      -0.243680        -6.6309
 147   1.0000      -0.243439        -6.6243
 148   1.0000      -0.242583        -6.6010
 149   1.0000      -0.242148        -6.5892
 150   1.0000      -0.240142        -6.5346
 151   1.0000      -0.237589        -6.4651
 152   1.0000      -0.234032        -6.3683
 153   1.0000      -0.217703        -5.9240
 154   1.0000      -0.215893        -5.8747
 155   1.0000      -0.202822        -5.5191
 156   1.0000      -0.194570        -5.2945
 157   0.0000      -0.180037        -4.8991
 158   0.0000      -0.153906        -4.1880
 159   0.0000      -0.140284        -3.8173
 160   0.0000      -0.136169        -3.7054
 161   0.0000      -0.126195        -3.4339

                 SPIN DOWN ORBITALS
  NO   OCC          E(Eh)            E(eV)
   0   1.0000    -234.202768     -6372.9813
   1   1.0000     -26.829662      -730.0722
   2   1.0000     -22.994912      -625.7234
   3   1.0000     -22.994072      -625.7005
   4   1.0000     -22.993721      -625.6910
   5   1.0000      -4.038553      -109.8946
   6   1.0000      -4.034036      -109.7717
   7   1.0000      -4.033949      -109.7693
   8   1.0000      -4.033624      -109.7605
   9   1.0000      -4.033058      -109.7451
  10   1.0000      -4.033028      -109.7443
  11   1.0000      -4.029064      -109.6364
  12   1.0000      -4.026321      -109.5618
  13   1.0000      -4.024223      -109.5047
  14   1.0000      -4.024188      -109.5037
  15   1.0000      -4.023846      -109.4944
  16   1.0000      -4.023824      -109.4938
  17   1.0000      -4.022933      -109.4696
  18   1.0000      -4.022793      -109.4658
  19   1.0000      -4.015939      -109.2792
  20   1.0000      -2.943339       -80.0923
  21   1.0000      -2.253280       -61.3149
  22   1.0000      -2.251695       -61.2717
  23   1.0000      -2.249707       -61.2176
  24   1.0000      -2.249519       -61.2125
  25   1.0000      -2.249431       -61.2101
  26   1.0000      -2.248739       -61.1913
  27   1.0000      -2.248722       -61.1908
  28   1.0000      -2.247672       -61.1623
  29   1.0000      -2.247563       -61.1593
  30   1.0000      -2.247419       -61.1554
  31   1.0000      -2.246132       -61.1204
  32   1.0000      -2.246081       -61.1190
  33   1.0000      -2.245666       -61.1077
  34   1.0000      -2.245355       -61.0992
  35   1.0000      -2.244624       -61.0793
  36   1.0000      -2.244336       -61.0715
  37   1.0000      -2.243682       -61.0537
  38   1.0000      -2.243194       -61.0404
  39   1.0000      -2.242662       -61.0259
  40   1.0000      -2.242640       -61.0253
  41   1.0000      -2.240778       -60.9747
  42   1.0000      -2.239689       -60.9450
  43   1.0000      -2.239074       -60.9283
  44   1.0000      -2.238920       -60.9241
  45   1.0000      -2.238723       -60.9187
  46   1.0000      -2.238528       -60.9135
  47   1.0000      -2.238401       -60.9100
  48   1.0000      -2.238251       -60.9059
  49   1.0000      -2.238016       -60.8995
  50   1.0000      -2.237452       -60.8842
  51   1.0000      -2.236948       -60.8704
  52   1.0000      -2.236745       -60.8649
  53   1.0000      -2.236306       -60.8530
  54   1.0000      -2.235741       -60.8376
  55   1.0000      -2.235615       -60.8342
  56   1.0000      -2.235582       -60.8333
  57   1.0000      -2.235446       -60.8296
  58   1.0000      -2.234350       -60.7997
  59   1.0000      -2.233873       -60.7868
  60   1.0000      -2.233785       -60.7844
  61   1.0000      -2.233443       -60.7751
  62   1.0000      -2.232664       -60.7539
  63   1.0000      -2.230683       -60.7000
  64   1.0000      -2.229054       -60.6556
  65   1.0000      -2.227458       -60.6122
  66   1.0000      -1.849537       -50.3285
  67   1.0000      -1.849432       -50.3256
  68   1.0000      -1.848178       -50.2915
  69   1.0000      -0.429873       -11.6975
  70   1.0000      -0.392994       -10.6939
  71   1.0000      -0.388499       -10.5716
  72   1.0000      -0.387904       -10.5554
  73   1.0000      -0.372247       -10.1294
  74   1.0000      -0.371184       -10.1004
  75   1.0000      -0.369149       -10.0450
  76   1.0000      -0.368760       -10.0345
  77   1.0000      -0.365419        -9.9436
  78   1.0000      -0.362533        -9.8650
  79   1.0000      -0.359453        -9.7812
  80   1.0000      -0.358643        -9.7592
  81   1.0000      -0.354959        -9.6589
  82   1.0000      -0.352750        -9.5988
  83   1.0000      -0.351263        -9.5584
  84   1.0000      -0.350335        -9.5331
  85   1.0000      -0.347778        -9.4635
  86   1.0000      -0.347378        -9.4526
  87   1.0000      -0.344585        -9.3766
  88   1.0000      -0.341886        -9.3032
  89   1.0000      -0.339949        -9.2505
  90   1.0000      -0.338386        -9.2080
  91   1.0000      -0.334823        -9.1110
  92   1.0000      -0.330158        -8.9841
  93   1.0000      -0.328771        -8.9463
  94   1.0000      -0.328745        -8.9456
  95   1.0000      -0.324611        -8.8331
  96   1.0000      -0.323724        -8.8090
  97   1.0000      -0.323638        -8.8066
  98   1.0000      -0.322173        -8.7668
  99   1.0000      -0.317249        -8.6328
 100   1.0000      -0.314247        -8.5511
 101   1.0000      -0.311468        -8.4755
 102   1.0000      -0.309764        -8.4291
 103   1.0000      -0.308867        -8.4047
 104   1.0000      -0.305937        -8.3250
 105   1.0000      -0.301514        -8.2046
 106   1.0000      -0.301033        -8.1915
 107   1.0000      -0.297967        -8.1081
 108   1.0000      -0.294298        -8.0083
 109   1.0000      -0.294033        -8.0010
 110   1.0000      -0.290353        -7.9009
 111   1.0000      -0.288384        -7.8473
 112   1.0000      -0.287368        -7.8197
 113   1.0000      -0.286849        -7.8056
 114   1.0000      -0.285373        -7.7654
 115   1.0000      -0.284878        -7.7519
 116   1.0000      -0.280166        -7.6237
 117   1.0000      -0.278896        -7.5891
 118   1.0000      -0.276556        -7.5255
 119   1.0000      -0.275381        -7.4935
 120   1.0000      -0.274391        -7.4666
 121   1.0000      -0.271877        -7.3981
 122   1.0000      -0.271115        -7.3774
 123   1.0000      -0.269481        -7.3329
 124   1.0000      -0.269031        -7.3207
 125   1.0000      -0.267910        -7.2902
 126   1.0000      -0.266722        -7.2579
 127   1.0000      -0.265574        -7.2266
 128   1.0000      -0.265440        -7.2230
 129   1.0000      -0.264204        -7.1894
 130   1.0000      -0.261574        -7.1178
 131   1.0000      -0.261447        -7.1143
 132   1.0000      -0.261145        -7.1061
 133   1.0000      -0.259346        -7.0572
 134   1.0000      -0.256937        -6.9916
 135   1.0000      -0.255819        -6.9612
 136   1.0000      -0.255161        -6.9433
 137   1.0000      -0.254134        -6.9153
 138   1.0000      -0.252031        -6.8581
 139   1.0000      -0.249570        -6.7911
 140   1.0000      -0.248384        -6.7589
 141   1.0000      -0.247830        -6.7438
 142   1.0000      -0.244188        -6.6447
 143   1.0000      -0.243504        -6.6261
 144   1.0000      -0.242902        -6.6097
 145   1.0000      -0.242131        -6.5887
 146   1.0000      -0.238781        -6.4976
 147   1.0000      -0.234589        -6.3835
 148   1.0000      -0.224510        -6.1092
 149   1.0000      -0.220919        -6.0115
 150   1.0000      -0.208534        -5.6745
 151   1.0000      -0.205015        -5.5787
 152   1.0000      -0.189837        -5.1657
 153   0.0000      -0.151005        -4.1091
 154   0.0000      -0.148805        -4.0492
 155   0.0000      -0.146163        -3.9773
 156   0.0000      -0.136076        -3.7028
 157   0.0000      -0.131713        -3.5841

MULLIKEN ATOMIC CHARGES AND SPIN POPULATIONS
--------------------------------------------
   0 Au:    0.088926   -0.040485
   1 Au:    0.388130   -0.022581
   2 Au:    0.335488    0.039963
   3 Au:    0.326725    0.017636
   4 Au:   -0.184291    0.004339
   5 Au:   -0.190221   -0.116460
   6 Au:    0.309493    0.020937
   7 Au:   -0.098369    0.012256
   8 Au:    0.338497    0.038446
   9 Au:   -0.184208    0.004004
  10 Au:    0.090927   -0.041678
  11 Au:    0.387493   -0.023313
  12 Au:    0.269963   -0.103434
  13 Au:    0.326983    0.016699
  14 Au:    0.335474    0.040156
  15 Mn:   -2.541010    4.153514
Sum of atomic charges         :    0.0000000

LOEWDIN ATOMIC CHARGES AND SPIN POPULATIONS
-------------------------------------------
   0 Au:    0.012111   -0.014772
   1 Au:    0.117567   -0.055617
   2 Au:    0.053141    0.008437
   3 Au:    0.102143   -0.024456
   4 Au:   -0.050410    0.003077
   5 Au:   -0.034552   -0.046333
   6 Au:    0.053051    0.010615
   7 Au:   -0.077242   -0.006485
   8 Au:    0.097694    0.029240
   9 Au:   -0.050265    0.002748
  10 Au:    0.012464   -0.015226
  11 Au:    0.117515   -0.056528
  12 Au:    0.021510   -0.038891
  13 Au:    0.102358   -0.025339
  14 Au:    0.053372    0.008545
  15 Mn:   -0.530458    4.220984

  Mayer bond orders larger than 0.100000
B(  0-Au,  1-Au) :   0.3360 B(  0-Au,  2-Au) :   0.2686 B(  0-Au,  4-Au) :   0.1357
B(  0-Au,  5-Au) :   0.1756 B(  0-Au,  6-Au) :   0.1654 B(  0-Au, 15-Mn) :   0.4805
B(  1-Au,  4-Au) :   0.2729 B(  1-Au,  5-Au) :   0.2752 B(  1-Au,  7-Au) :   0.2744
B(  2-Au,  3-Au) :   0.2242 B(  2-Au,  6-Au) :   0.1664 B(  2-Au, 14-Au) :   0.2282
B(  2-Au, 15-Mn) :   0.3751 B(  3-Au,  4-Au) :   0.2773 B(  3-Au, 12-Au) :   0.2012
B(  3-Au, 15-Mn) :   0.4398 B(  4-Au,  7-Au) :   0.2343 B(  4-Au,  8-Au) :   0.2922
B(  4-Au, 12-Au) :   0.1920 B(  4-Au, 15-Mn) :   0.4143 B(  5-Au,  6-Au) :   0.3024
B(  5-Au,  7-Au) :   0.2657 B(  5-Au, 10-Au) :   0.1719 B(  5-Au, 11-Au) :   0.2780
B(  5-Au, 15-Mn) :   0.4032 B(  6-Au, 10-Au) :   0.1656 B(  6-Au, 14-Au) :   0.1660
B(  6-Au, 15-Mn) :   0.3892 B(  7-Au,  8-Au) :   0.2867 B(  7-Au,  9-Au) :   0.2351
B(  7-Au, 11-Au) :   0.2744 B(  7-Au, 15-Mn) :   0.1371 B(  8-Au,  9-Au) :   0.2941
B(  8-Au, 12-Au) :   0.2662 B(  9-Au, 10-Au) :   0.1368 B(  9-Au, 11-Au) :   0.2713
B(  9-Au, 12-Au) :   0.1891 B(  9-Au, 13-Au) :   0.2784 B(  9-Au, 15-Mn) :   0.4145
B( 10-Au, 11-Au) :   0.3352 B( 10-Au, 14-Au) :   0.2673 B( 10-Au, 15-Mn) :   0.4819
B( 12-Au, 13-Au) :   0.2021 B( 12-Au, 15-Mn) :   0.4216 B( 13-Au, 14-Au) :   0.2227
B( 13-Au, 15-Mn) :   0.4390 B( 14-Au, 15-Mn) :   0.3772

FINAL SINGLE POINT ENERGY     -3188.215174779353

DIPOLE MOMENT
-------------
                                X             Y             Z
Electronic contribution:      6.59030      21.54096     -16.46592
Nuclear contribution   :     -6.51593     -21.34799      16.35177
                        -----------------------------------------
Total Dipole Moment    :      0.07437       0.19297      -0.11415
                        -----------------------------------------
Magnitude (a.u.)       :      0.23622
Magnitude (Debye)      :      0.60042

Rotational constants in cm-1:     0.001030     0.000880     0.000856
Rotational constants in MHz :    30.889447    26.371158    25.664053

                             ****ORCA TERMINATED NORMALLY****
TOTAL RUN TIME: 0 days 1 hours 29 minutes 50 seconds 76 msec
