                         Program Version 5.0.3 -  RELEASE  -
|  1> !CASSCF def2-TZVP def2-TZVP/C
|  2> !MOREAD RIJCOSX
|  3> %maxcore 6000
|  4> %moinp "pbe.qro"
|  5> %pal nprocs 16 end
|  6>
|  7> %casscf
|  8>  mult 6,4
|  9>  bweight 1,1
| 10>  nroots 1,24
| 11>  nel 5
| 12>  norb 5
| 13> end
| 14>
| 15>
| 16> *xyzfile 0 6 pbe.xyz
| 17>
| 18>
| 19>                          ****END OF INPUT****

CARTESIAN COORDINATES (ANGSTROEM)
---------------------------------
  Au     7.784069    7.302346    4.443493
  Au     6.182142    6.181766    6.647033
  Au     9.961891    7.808561    5.948277
  Au     7.248241   10.079390    4.740316
  Au     5.211124    6.578112    4.078771
  Au     5.065098    8.728768    5.853425
  Au     7.700976    9.497693   10.213228
  Au     9.597351    8.590711    8.511293
  Au     7.116480    7.077112    8.943767
  Au     5.753729    9.709748    8.271275
  Mn     7.574908    8.556626    6.823666

 Total Charge           Charge          ....    0
 Multiplicity           Mult            ....    6
 Number of Electrons    NEL             ....  215
 Basis Dimension        Dim             ....  445

ORBITAL ENERGIES
----------------

  NO   OCC          E(Eh)            E(eV)
   0   2.0000    -240.546684     -6545.6081
   1   2.0000     -29.126307      -792.5671
   2   2.0000     -24.831291      -675.6938
   3   2.0000     -24.830804      -675.6805
   4   2.0000     -24.830291      -675.6666
   5   2.0000      -4.728499      -128.6690
   6   2.0000      -4.723566      -128.5348
   7   2.0000      -4.717957      -128.3821
   8   2.0000      -4.715050      -128.3030
   9   2.0000      -4.712146      -128.2240
  10   2.0000      -4.707130      -128.0875
  11   2.0000      -4.706894      -128.0811
  12   2.0000      -4.702412      -127.9591
  13   2.0000      -4.701518      -127.9348
  14   2.0000      -4.695919      -127.7825
  15   2.0000      -3.832349      -104.2835
  16   2.0000      -2.769313       -75.3568
  17   2.0000      -2.765894       -75.2638
  18   2.0000      -2.765138       -75.2432
  19   2.0000      -2.761859       -75.1540
  20   2.0000      -2.759178       -75.0810
  21   2.0000      -2.758866       -75.0726
  22   2.0000      -2.756517       -75.0087
  23   2.0000      -2.754043       -74.9413
  24   2.0000      -2.752715       -74.9052
  25   2.0000      -2.751836       -74.8813
  26   2.0000      -2.750870       -74.8550
  27   2.0000      -2.749679       -74.8226
  28   2.0000      -2.749334       -74.8132
  29   2.0000      -2.747780       -74.7709
  30   2.0000      -2.747630       -74.7668
  31   2.0000      -2.744578       -74.6838
  32   2.0000      -2.743372       -74.6509
  33   2.0000      -2.743100       -74.6435
  34   2.0000      -2.741596       -74.6026
  35   2.0000      -2.739898       -74.5564
  36   2.0000      -2.739608       -74.5485
  37   2.0000      -2.738989       -74.5317
  38   2.0000      -2.738256       -74.5117
  39   2.0000      -2.737639       -74.4949
  40   2.0000      -2.734969       -74.4223
  41   2.0000      -2.732728       -74.3613
  42   2.0000      -2.732246       -74.3482
  43   2.0000      -2.732128       -74.3450
  44   2.0000      -2.730027       -74.2878
  45   2.0000      -2.728999       -74.2598
  46   2.0000      -2.500518       -68.0425
  47   2.0000      -2.499498       -68.0148
  48   2.0000      -2.498829       -67.9966
  49   2.0000      -0.565981       -15.4011
  50   2.0000      -0.554597       -15.0913
  51   2.0000      -0.547157       -14.8889
  52   2.0000      -0.542440       -14.7605
  53   2.0000      -0.539652       -14.6847
  54   2.0000      -0.536598       -14.6016
  55   2.0000      -0.536234       -14.5917
  56   2.0000      -0.533494       -14.5171
  57   2.0000      -0.531031       -14.4501
  58   2.0000      -0.527591       -14.3565
  59   2.0000      -0.522886       -14.2285
  60   2.0000      -0.521081       -14.1793
  61   2.0000      -0.518950       -14.1213
  62   2.0000      -0.511572       -13.9206
  63   2.0000      -0.508948       -13.8492
  64   2.0000      -0.507085       -13.7985
  65   2.0000      -0.503221       -13.6933
  66   2.0000      -0.499153       -13.5826
  67   2.0000      -0.496938       -13.5224
  68   2.0000      -0.493235       -13.4216
  69   2.0000      -0.491373       -13.3709
  70   2.0000      -0.486471       -13.2375
  71   2.0000      -0.485586       -13.2135
  72   2.0000      -0.482764       -13.1367
  73   2.0000      -0.475585       -12.9413
  74   2.0000      -0.470818       -12.8116
  75   2.0000      -0.469480       -12.7752
  76   2.0000      -0.466732       -12.7004
  77   2.0000      -0.465217       -12.6592
  78   2.0000      -0.463285       -12.6066
  79   2.0000      -0.460331       -12.5262
  80   2.0000      -0.458709       -12.4821
  81   2.0000      -0.455767       -12.4020
  82   2.0000      -0.452077       -12.3017
  83   2.0000      -0.451481       -12.2854
  84   2.0000      -0.448491       -12.2041
  85   2.0000      -0.445628       -12.1262
  86   2.0000      -0.443102       -12.0574
  87   2.0000      -0.441751       -12.0207
  88   2.0000      -0.438190       -11.9237
  89   2.0000      -0.435603       -11.8534
  90   2.0000      -0.434459       -11.8222
  91   2.0000      -0.432249       -11.7621
  92   2.0000      -0.430635       -11.7182
  93   2.0000      -0.426880       -11.6160
  94   2.0000      -0.426075       -11.5941
  95   2.0000      -0.422460       -11.4957
  96   2.0000      -0.421547       -11.4709
  97   2.0000      -0.405302       -11.0288
  98   2.0000      -0.399183       -10.8623
  99   2.0000      -0.390502       -10.6261
 100   2.0000      -0.361907        -9.8480
 101   2.0000      -0.315402        -8.5825
 102   2.0000      -0.283136        -7.7045
 103   2.0000      -0.241223        -6.5640
 104   2.0000      -0.216568        -5.8931
 105   1.0000      -0.154735        -4.2105
 106   1.0000      -0.139109        -3.7854
 107   1.0000      -0.152864        -4.1596
 108   1.0000      -0.148971        -4.0537
 109   1.0000      -0.152721        -4.1558
 110   0.0000      -0.046001        -1.2517
 111   0.0000      -0.005587        -0.1520
 112   0.0000      -0.000495        -0.0135
 113   0.0000       0.006814         0.1854
 114   0.0000       0.018432         0.5016

MULLIKEN ATOMIC CHARGES AND SPIN DENSITIES
------------------------------------------
   0 Au:   -0.095752    0.013099
   1 Au:   -0.039073    0.008295
   2 Au:    0.311152    0.010056
   3 Au:    0.419490    0.013253
   4 Au:    0.335630    0.004377
   5 Au:   -0.090737    0.011719
   6 Au:    0.150475    0.005725
   7 Au:    0.057822    0.016000
   8 Au:    0.102170    0.011937
   9 Au:    0.302797    0.011462
  10 Mn:   -1.453974    3.894076
Sum of atomic charges       :    0.0000000

LOEWDIN ATOMIC CHARGES AND SPIN DENSITIES
-----------------------------------------
   0 Au:   -0.082549    0.016431
   1 Au:   -0.046349    0.012566
   2 Au:    0.066294    0.015775
   3 Au:    0.159083    0.018036
   4 Au:    0.090156    0.005460
   5 Au:   -0.107093    0.016123
   6 Au:    0.069196    0.007162
   7 Au:   -0.073306    0.020026
   8 Au:   -0.033966    0.016925
   9 Au:    0.073488    0.016360
  10 Mn:   -0.114955    3.855135

  Mayer bond orders larger than 0.100000
B(  0-Au,  1-Au) :   0.1849 B(  0-Au,  2-Au) :   0.1714 B(  0-Au,  3-Au) :   0.2778
B(  0-Au,  4-Au) :   0.3280 B(  0-Au,  5-Au) :   0.1827 B(  0-Au, 10-Mn) :   0.4803
B(  1-Au,  4-Au) :   0.3215 B(  1-Au,  5-Au) :   0.2041 B(  1-Au,  8-Au) :   0.4764
B(  1-Au, 10-Mn) :   0.3696 B(  2-Au,  7-Au) :   0.4364 B(  2-Au, 10-Mn) :   0.4960
B(  3-Au, 10-Mn) :   0.4150 B(  4-Au,  5-Au) :   0.3155 B(  5-Au,  9-Au) :   0.3748
B(  5-Au, 10-Mn) :   0.5520 B(  6-Au,  7-Au) :   0.2608 B(  6-Au,  8-Au) :   0.2930
B(  6-Au,  9-Au) :   0.2907 B(  6-Au, 10-Mn) :   0.1941 B(  7-Au, 10-Mn) :   0.4709
B(  8-Au,  9-Au) :   0.1266 B(  8-Au, 10-Mn) :   0.4925 B(  9-Au, 10-Mn) :   0.4010

FINAL SINGLE POINT ENERGY     -2497.870961477232

DIPOLE MOMENT
-------------
                                X             Y             Z
Electronic contribution:    -15.18079     -14.01620      -2.39609
Nuclear contribution   :     14.95069      14.53085       2.12157
                        -----------------------------------------
Total Dipole Moment    :     -0.23010       0.51465      -0.27452
                        -----------------------------------------
Magnitude (a.u.)       :      0.62704
Magnitude (Debye)      :      1.59380

Rotational constants in cm-1:     0.002294     0.001428     0.001256
Rotational constants in MHz :    68.782754    42.796420    37.655536

                             ****ORCA TERMINATED NORMALLY****
TOTAL RUN TIME: 0 days 0 hours 4 minutes 24 seconds 847 msec
