                         Program Version 5.0.3 -  RELEASE  -
|  1> !SC-NEVPT2 def2-TZVP def2-TZVP/C
|  2> !MOREAD RIJCOSX def2/J
|  3> %maxcore 4000
|  4> %moinp "casscf.gbw"
|  5> %pal nprocs 8 end
|  6>
|  7> %casscf
|  8>  mult 5,3
|  9>  bweight 1,1
| 10>  nroots 5,45
| 11>  nel 6
| 12>  norb 5
| 13>  ptsettings
| 14>   d4tpre 0.0
| 15>   d3tpre 0.0
| 16>  end
| 17>  rel
| 18>    dosoc true
| 19>    gtensor true
| 20>  end
| 21> end
| 22>
| 23>
| 24> *xyzfile 0 5 pbe.xyz
| 25>
| 26>
| 27>                          ****END OF INPUT****

CARTESIAN COORDINATES (ANGSTROEM)
---------------------------------
  Au    10.970560   10.147441    8.089200
  Au     8.332911    9.316415    8.257525
  Au    10.312585    7.925119    9.602382
  Au     6.298791    7.640287    7.936105
  Au     9.383590    5.474484   10.033428
  Au     8.167506    3.441321    5.288905
  Au    10.542556    7.990392    6.495552
  Au     9.600032    5.732484    5.553492
  Au     6.682214    5.364426    6.622805
  Au     8.676097    3.981481    7.954428
  Fe     8.710592    6.676593    7.825817

 Total Charge           Charge          ....    0
 Multiplicity           Mult            ....    5
 Number of Electrons    NEL             ....  216
 Basis Dimension        Dim             ....  445

ORBITAL ENERGIES
----------------

  NO   OCC          E(Eh)            E(eV)
   0   2.0000    -261.260236     -7109.2525
   1   2.0000     -31.810192      -865.5993
   2   2.0000     -27.298285      -742.8241
   3   2.0000     -27.287804      -742.5389
   4   2.0000     -27.287427      -742.5286
   5   2.0000      -4.715407      -128.3128
   6   2.0000      -4.715287      -128.3095
   7   2.0000      -4.714786      -128.2959
   8   2.0000      -4.714709      -128.2938
   9   2.0000      -4.703202      -127.9806
  10   2.0000      -4.703183      -127.9801
  11   2.0000      -4.700713      -127.9129
  12   2.0000      -4.700409      -127.9046
  13   2.0000      -4.692496      -127.6893
  14   2.0000      -4.691993      -127.6756
  15   2.0000      -4.040305      -109.9423
  16   2.0000      -2.757437       -75.0337
  17   2.0000      -2.756829       -75.0171
  18   2.0000      -2.755360       -74.9772
  19   2.0000      -2.754907       -74.9648
  20   2.0000      -2.754572       -74.9557
  21   2.0000      -2.754035       -74.9411
  22   2.0000      -2.751094       -74.8611
  23   2.0000      -2.751052       -74.8599
  24   2.0000      -2.749498       -74.8176
  25   2.0000      -2.749452       -74.8164
  26   2.0000      -2.747952       -74.7756
  27   2.0000      -2.747917       -74.7746
  28   2.0000      -2.741573       -74.6020
  29   2.0000      -2.740776       -74.5803
  30   2.0000      -2.738291       -74.5127
  31   2.0000      -2.737834       -74.5002
  32   2.0000      -2.737481       -74.4906
  33   2.0000      -2.737015       -74.4780
  34   2.0000      -2.736902       -74.4749
  35   2.0000      -2.736329       -74.4593
  36   2.0000      -2.735622       -74.4401
  37   2.0000      -2.735275       -74.4306
  38   2.0000      -2.733444       -74.3808
  39   2.0000      -2.731766       -74.3351
  40   2.0000      -2.731450       -74.3265
  41   2.0000      -2.727947       -74.2312
  42   2.0000      -2.727793       -74.2270
  43   2.0000      -2.724009       -74.1241
  44   2.0000      -2.723461       -74.1091
  45   2.0000      -2.723207       -74.1022
  46   2.0000      -2.628424       -71.5231
  47   2.0000      -2.622527       -71.3626
  48   2.0000      -2.620967       -71.3201
  49   2.0000      -0.557923       -15.1819
  50   2.0000      -0.550616       -14.9830
  51   2.0000      -0.544295       -14.8110
  52   2.0000      -0.540954       -14.7201
  53   2.0000      -0.539684       -14.6856
  54   2.0000      -0.536164       -14.5898
  55   2.0000      -0.535030       -14.5589
  56   2.0000      -0.529389       -14.4054
  57   2.0000      -0.525340       -14.2952
  58   2.0000      -0.521894       -14.2015
  59   2.0000      -0.513835       -13.9822
  60   2.0000      -0.513369       -13.9695
  61   2.0000      -0.512654       -13.9500
  62   2.0000      -0.509635       -13.8679
  63   2.0000      -0.501281       -13.6405
  64   2.0000      -0.498258       -13.5583
  65   2.0000      -0.496968       -13.5232
  66   2.0000      -0.492483       -13.4011
  67   2.0000      -0.488582       -13.2950
  68   2.0000      -0.488266       -13.2864
  69   2.0000      -0.488038       -13.2802
  70   2.0000      -0.477838       -13.0026
  71   2.0000      -0.469988       -12.7890
  72   2.0000      -0.468383       -12.7454
  73   2.0000      -0.467195       -12.7130
  74   2.0000      -0.463834       -12.6216
  75   2.0000      -0.463213       -12.6047
  76   2.0000      -0.462497       -12.5852
  77   2.0000      -0.457046       -12.4369
  78   2.0000      -0.454874       -12.3778
  79   2.0000      -0.454038       -12.3550
  80   2.0000      -0.449012       -12.2182
  81   2.0000      -0.448332       -12.1997
  82   2.0000      -0.443520       -12.0688
  83   2.0000      -0.442698       -12.0464
  84   2.0000      -0.441589       -12.0162
  85   2.0000      -0.441014       -12.0006
  86   2.0000      -0.439310       -11.9542
  87   2.0000      -0.438132       -11.9222
  88   2.0000      -0.435256       -11.8439
  89   2.0000      -0.434732       -11.8297
  90   2.0000      -0.430245       -11.7075
  91   2.0000      -0.428689       -11.6652
  92   2.0000      -0.428177       -11.6513
  93   2.0000      -0.419316       -11.4102
  94   2.0000      -0.416921       -11.3450
  95   2.0000      -0.415606       -11.3092
  96   2.0000      -0.408844       -11.1252
  97   2.0000      -0.400923       -10.9097
  98   2.0000      -0.397494       -10.8164
  99   2.0000      -0.384274       -10.4566
 100   2.0000      -0.370301       -10.0764
 101   2.0000      -0.360514        -9.8101
 102   2.0000      -0.301580        -8.2064
 103   2.0000      -0.291290        -7.9264
 104   2.0000      -0.250258        -6.8099
 105   1.2000      -0.114327        -3.1110
 106   1.2000      -0.160827        -4.3763
 107   1.2000      -0.122834        -3.3425
 108   1.2000      -0.144547        -3.9333
 109   1.2000      -0.136829        -3.7233
 110   0.0000      -0.040004        -1.0886
 111   0.0000      -0.004028        -0.1096
 112   0.0000       0.004597         0.1251
 113   0.0000       0.014752         0.4014
 114   0.0000       0.033570         0.9135

MULLIKEN ATOMIC CHARGES AND SPIN DENSITIES
------------------------------------------
   0 Au:    0.361549    0.062090
   1 Au:    0.073092    0.088459
   2 Au:    0.073845    0.084130
   3 Au:    0.152779    0.022429
   4 Au:    0.150423    0.020964
   5 Au:    0.360832    0.062367
   6 Au:   -0.030524    0.033353
   7 Au:   -0.030505    0.033237
   8 Au:    0.071878    0.088990
   9 Au:    0.076340    0.083628
  10 Fe:   -1.259709    2.420353
Sum of atomic charges       :    0.0000000

LOEWDIN ATOMIC CHARGES AND SPIN DENSITIES
-----------------------------------------
   0 Au:    0.126549    0.065663
   1 Au:   -0.001536    0.066991
   2 Au:   -0.001420    0.065018
   3 Au:    0.110638    0.074035
   4 Au:    0.113403    0.070354
   5 Au:    0.126273    0.065871
   6 Au:   -0.051173    0.044150
   7 Au:   -0.051015    0.044169
   8 Au:   -0.001303    0.067246
   9 Au:   -0.001255    0.064819
  10 Fe:   -0.369160    2.371684

  Mayer bond orders larger than 0.100000
B(  0-Au,  1-Au) :   0.3127 B(  0-Au,  2-Au) :   0.3173 B(  0-Au,  6-Au) :   0.2799
B(  1-Au,  2-Au) :   0.3222 B(  1-Au,  3-Au) :   0.3260 B(  1-Au,  6-Au) :   0.1275
B(  1-Au, 10-Fe) :   0.3000 B(  2-Au,  4-Au) :   0.3261 B(  2-Au,  6-Au) :   0.1297
B(  2-Au, 10-Fe) :   0.2991 B(  3-Au,  8-Au) :   0.3260 B(  3-Au, 10-Fe) :   0.4202
B(  4-Au,  9-Au) :   0.3253 B(  4-Au, 10-Fe) :   0.4182 B(  5-Au,  7-Au) :   0.2805
B(  5-Au,  8-Au) :   0.3113 B(  5-Au,  9-Au) :   0.3182 B(  6-Au,  7-Au) :   0.5776
B(  6-Au, 10-Fe) :   0.4025 B(  7-Au,  8-Au) :   0.1262 B(  7-Au,  9-Au) :   0.1304
B(  7-Au, 10-Fe) :   0.4027 B(  8-Au,  9-Au) :   0.3221 B(  8-Au, 10-Fe) :   0.3015
B(  9-Au, 10-Fe) :   0.2980

FINAL SINGLE POINT ENERGY     -2615.590940272249

DIPOLE MOMENT
-------------
                                X             Y             Z
Electronic contribution:      6.76363       0.89482      -8.78950
Nuclear contribution   :     -7.04881      -0.93907       9.18295
                        -----------------------------------------
Total Dipole Moment    :     -0.28519      -0.04425       0.39345
                        -----------------------------------------
Magnitude (a.u.)       :      0.48795
Magnitude (Debye)      :      1.24027

Rotational constants in cm-1:     0.002437     0.001193     0.001174
Rotational constants in MHz :    73.048490    35.777097    35.189543

                             ****ORCA TERMINATED NORMALLY****
TOTAL RUN TIME: 0 days 0 hours 24 minutes 42 seconds 328 msec
