                         Program Version 5.0.3 -  RELEASE  -
|  1> !SC-NEVPT2 def2-TZVP def2-TZVP/C
|  2> !MOREAD RIJCOSX def2/J
|  3> %maxcore 4000
|  4> %moinp "casscf.gbw"
|  5> %pal nprocs 8 end
|  6>
|  7> %casscf
|  8>  mult 5,3
|  9>  bweight 1,1
| 10>  nroots 5,45
| 11>  nel 6
| 12>  norb 5
| 13>  ptsettings
| 14>   d4tpre 1e-14 # default = 1e-10
| 15>   d3tpre 1e-14
| 16>  end
| 17>  rel
| 18>    dosoc true
| 19>    gtensor true
| 20>  end
| 21> end
| 22>
| 23>
| 24> *xyzfile 0 5 pbe.xyz
| 25>
| 26>
| 27>                          ****END OF INPUT****

CARTESIAN COORDINATES (ANGSTROEM)
---------------------------------
  Au     5.547107    4.638696    8.823854
  Au     7.969628    6.919541    6.135605
  Au    10.385132    5.642836    7.270845
  Au    10.243984    8.295770    7.090485
  Au     7.113663    4.329692    6.418069
  Au     8.676054    5.924689   11.065134
  Au     7.640195    3.533881   10.261093
  Au     9.276833    3.312701    8.038056
  Au     9.169333    8.088086    9.704845
  Au     9.788186   10.546244    8.557203
  Au     5.902945    7.237896    8.221466
  Au     7.558142    9.250966    7.681874
  Cr     8.028591    5.657555    8.515629

 Total Charge           Charge          ....    0
 Multiplicity           Mult            ....    5
 Number of Electrons    NEL             ....  252
 Basis Dimension        Dim             ....  525

ORBITAL ENERGIES
----------------

  NO   OCC          E(Eh)            E(eV)
   0   2.0000    -220.563215     -6001.8302
   1   2.0000     -26.413773      -718.7553
   2   2.0000     -22.347107      -608.0957
   3   2.0000     -22.343294      -607.9919
   4   2.0000     -22.336042      -607.7946
   5   2.0000      -4.721775      -128.4860
   6   2.0000      -4.711673      -128.2111
   7   2.0000      -4.711516      -128.2069
   8   2.0000      -4.710593      -128.1818
   9   2.0000      -4.710555      -128.1807
  10   2.0000      -4.708858      -128.1345
  11   2.0000      -4.704821      -128.0247
  12   2.0000      -4.704702      -128.0214
  13   2.0000      -4.701684      -127.9393
  14   2.0000      -4.699389      -127.8769
  15   2.0000      -4.693933      -127.7284
  16   2.0000      -4.691070      -127.6505
  17   2.0000      -3.459247       -94.1309
  18   2.0000      -2.760557       -75.1186
  19   2.0000      -2.759004       -75.0763
  20   2.0000      -2.756762       -75.0153
  21   2.0000      -2.753959       -74.9390
  22   2.0000      -2.753808       -74.9349
  23   2.0000      -2.750313       -74.8398
  24   2.0000      -2.749924       -74.8292
  25   2.0000      -2.748874       -74.8007
  26   2.0000      -2.748577       -74.7926
  27   2.0000      -2.747577       -74.7654
  28   2.0000      -2.746794       -74.7441
  29   2.0000      -2.746685       -74.7411
  30   2.0000      -2.746028       -74.7232
  31   2.0000      -2.745549       -74.7102
  32   2.0000      -2.743848       -74.6639
  33   2.0000      -2.743066       -74.6426
  34   2.0000      -2.742987       -74.6405
  35   2.0000      -2.742416       -74.6249
  36   2.0000      -2.741038       -74.5874
  37   2.0000      -2.741030       -74.5872
  38   2.0000      -2.740997       -74.5863
  39   2.0000      -2.739553       -74.5470
  40   2.0000      -2.739492       -74.5454
  41   2.0000      -2.738585       -74.5207
  42   2.0000      -2.738263       -74.5119
  43   2.0000      -2.737039       -74.4786
  44   2.0000      -2.736010       -74.4506
  45   2.0000      -2.734757       -74.4165
  46   2.0000      -2.734351       -74.4055
  47   2.0000      -2.732824       -74.3639
  48   2.0000      -2.732746       -74.3618
  49   2.0000      -2.729824       -74.2823
  50   2.0000      -2.725210       -74.1567
  51   2.0000      -2.725036       -74.1520
  52   2.0000      -2.723874       -74.1204
  53   2.0000      -2.722931       -74.0947
  54   2.0000      -2.219958       -60.4081
  55   2.0000      -2.215989       -60.3001
  56   2.0000      -2.210744       -60.1574
  57   2.0000      -0.556532       -15.1440
  58   2.0000      -0.550387       -14.9768
  59   2.0000      -0.545912       -14.8550
  60   2.0000      -0.544957       -14.8290
  61   2.0000      -0.543298       -14.7839
  62   2.0000      -0.537413       -14.6237
  63   2.0000      -0.535976       -14.5847
  64   2.0000      -0.535329       -14.5670
  65   2.0000      -0.527158       -14.3447
  66   2.0000      -0.525491       -14.2993
  67   2.0000      -0.524610       -14.2754
  68   2.0000      -0.522471       -14.2171
  69   2.0000      -0.519485       -14.1359
  70   2.0000      -0.516884       -14.0651
  71   2.0000      -0.512218       -13.9381
  72   2.0000      -0.511758       -13.9256
  73   2.0000      -0.510443       -13.8899
  74   2.0000      -0.505012       -13.7421
  75   2.0000      -0.503207       -13.6930
  76   2.0000      -0.500626       -13.6227
  77   2.0000      -0.498308       -13.5597
  78   2.0000      -0.497677       -13.5425
  79   2.0000      -0.490813       -13.3557
  80   2.0000      -0.485680       -13.2160
  81   2.0000      -0.484017       -13.1708
  82   2.0000      -0.483114       -13.1462
  83   2.0000      -0.478843       -13.0300
  84   2.0000      -0.475555       -12.9405
  85   2.0000      -0.472792       -12.8653
  86   2.0000      -0.471298       -12.8247
  87   2.0000      -0.468866       -12.7585
  88   2.0000      -0.466498       -12.6941
  89   2.0000      -0.463983       -12.6256
  90   2.0000      -0.462204       -12.5772
  91   2.0000      -0.461553       -12.5595
  92   2.0000      -0.460750       -12.5377
  93   2.0000      -0.456906       -12.4331
  94   2.0000      -0.456832       -12.4310
  95   2.0000      -0.451167       -12.2769
  96   2.0000      -0.450511       -12.2590
  97   2.0000      -0.448808       -12.2127
  98   2.0000      -0.446661       -12.1543
  99   2.0000      -0.441706       -12.0194
 100   2.0000      -0.440507       -11.9868
 101   2.0000      -0.438281       -11.9262
 102   2.0000      -0.436964       -11.8904
 103   2.0000      -0.436432       -11.8759
 104   2.0000      -0.432756       -11.7759
 105   2.0000      -0.430472       -11.7137
 106   2.0000      -0.430359       -11.7107
 107   2.0000      -0.428818       -11.6687
 108   2.0000      -0.423911       -11.5352
 109   2.0000      -0.422651       -11.5009
 110   2.0000      -0.422019       -11.4837
 111   2.0000      -0.409966       -11.1558
 112   2.0000      -0.408253       -11.1091
 113   2.0000      -0.406727       -11.0676
 114   2.0000      -0.405904       -11.0452
 115   2.0000      -0.401819       -10.9340
 116   2.0000      -0.391653       -10.6574
 117   2.0000      -0.390419       -10.6238
 118   2.0000      -0.368389       -10.0244
 119   2.0000      -0.312692        -8.5088
 120   2.0000      -0.300764        -8.1842
 121   2.0000      -0.256786        -6.9875
 122   2.0000      -0.218521        -5.9463
 123   1.2000      -0.187759        -5.1092
 124   1.2000      -0.147834        -4.0228
 125   1.2000      -0.132347        -3.6014
 126   1.2000      -0.116106        -3.1594
 127   1.2000      -0.156155        -4.2492
 128   0.0000      -0.006666        -0.1814
 129   0.0000       0.003435         0.0935
 130   0.0000       0.011100         0.3020
 131   0.0000       0.014662         0.3990
 132   0.0000       0.020884         0.5683

MULLIKEN ATOMIC CHARGES AND SPIN DENSITIES
------------------------------------------
   0 Au:    0.322979    0.088763
   1 Au:    0.380568    0.043793
   2 Au:    0.200536    0.062520
   3 Au:    0.150815    0.092366
   4 Au:    0.593975    0.038957
   5 Au:    0.299640    0.007000
   6 Au:    0.345009    0.024900
   7 Au:    0.321097    0.089366
   8 Au:   -0.645986    0.003527
   9 Au:    0.535372    0.005429
  10 Au:    0.200468    0.061386
  11 Au:    0.144929    0.092483
  12 Cr:   -2.849402    2.389511
Sum of atomic charges       :    0.0000000

LOEWDIN ATOMIC CHARGES AND SPIN DENSITIES
-----------------------------------------
   0 Au:    0.118014    0.098623
   1 Au:    0.048453    0.057240
   2 Au:    0.115082    0.096350
   3 Au:   -0.028584    0.066931
   4 Au:    0.123354    0.059563
   5 Au:    0.106106    0.022833
   6 Au:    0.070561    0.055262
   7 Au:    0.118467    0.098960
   8 Au:   -0.129652    0.025705
   9 Au:    0.182524    0.017727
  10 Au:    0.115604    0.095781
  11 Au:   -0.029507    0.066614
  12 Cr:   -0.810421    2.238411

  Mayer bond orders larger than 0.100000
B(  0-Au,  4-Au) :   0.1332 B(  0-Au,  6-Au) :   0.1808 B(  0-Au, 10-Au) :   0.2393
B(  0-Au, 12-Cr) :   0.4237 B(  1-Au,  2-Au) :   0.1612 B(  1-Au,  3-Au) :   0.1647
B(  1-Au,  4-Au) :   0.1073 B(  1-Au,  6-Au) :   0.1247 B(  1-Au, 10-Au) :   0.1615
B(  1-Au, 11-Au) :   0.1626 B(  1-Au, 12-Cr) :   0.3929 B(  2-Au,  3-Au) :   0.2655
B(  2-Au,  7-Au) :   0.2400 B(  2-Au, 12-Cr) :   0.4649 B(  3-Au,  8-Au) :   0.2618
B(  3-Au,  9-Au) :   0.2441 B(  3-Au, 11-Au) :   0.1672 B(  3-Au, 12-Cr) :   0.2949
B(  4-Au,  7-Au) :   0.1369 B(  4-Au, 12-Cr) :   0.5708 B(  5-Au,  6-Au) :   0.1882
B(  5-Au,  8-Au) :   0.6229 B(  5-Au, 12-Cr) :   0.4688 B(  6-Au,  7-Au) :   0.1793
B(  6-Au, 12-Cr) :   0.4612 B(  7-Au, 12-Cr) :   0.4234 B(  8-Au,  9-Au) :   0.4125
B(  8-Au, 11-Au) :   0.2659 B(  8-Au, 12-Cr) :   0.4366 B(  9-Au, 11-Au) :   0.2486
B( 10-Au, 11-Au) :   0.2668 B( 10-Au, 12-Cr) :   0.4672 B( 11-Au, 12-Cr) :   0.2945

FINAL SINGLE POINT ENERGY     -2666.992795950581

DIPOLE MOMENT
-------------
                                X             Y             Z
Electronic contribution:      8.33975      28.38261      -8.97892
Nuclear contribution   :     -8.56523     -28.75549       8.53865
                        -----------------------------------------
Total Dipole Moment    :     -0.22548      -0.37287      -0.44027
                        -----------------------------------------
Magnitude (a.u.)       :      0.61945
Magnitude (Debye)      :      1.57451

Rotational constants in cm-1:     0.001758     0.000981     0.000976
Rotational constants in MHz :    52.692230    29.402657    29.266823

                             ****ORCA TERMINATED NORMALLY****
TOTAL RUN TIME: 0 days 0 hours 44 minutes 55 seconds 690 msec
