                         Program Version 5.0.3 -  RELEASE  -
|  1> !RI-B2PLYP def2-TZVP def2-TZVP/C
|  2> !RIJCOSX VERYSLOWCONV
|  3>
|  4> %scf
|  5>   AutoTRAHIter 200
|  6>   maxiter 400
|  7> end
|  8>
|  9>
| 10> %pal nprocs 6 end
| 11>
| 12> *xyzfile 0 5 pbe.xyz
| 13>
| 14> $new_job
| 15>
| 16> !RI-B2PLYP def2-TZVP def2-TZVP/C
| 17> !RIJCOSX VERYSLOWCONV
| 18>
| 19> %scf
| 20>   AutoTRAHIter 200
| 21>   maxiter 400
| 22> end
| 23>
| 24>
| 25> %pal nprocs 6 end
| 26>
| 27> *xyzfile 0 3 pbe.xyz
| 28>
| 29>
| 30>
| 31>
| 32>
| 33>                          ****END OF INPUT****
 Total Charge           Charge          ....    0
 Multiplicity           Mult            ....    5
 Number of Electrons    NEL             ....  254
MP2 TOTAL ENERGY:    -2890.543392597 Eh
FINAL SINGLE POINT ENERGY     -2890.543392597098

CARTESIAN COORDINATES (ANGSTROEM)
---------------------------------
  Au     6.540330    7.326721    4.145086
  Au     9.087409    7.211841    3.177305
  Au     8.934277    6.859719    5.890226
  Au     9.292394    9.348486    7.130298
  Au     8.505809    9.570835    4.445429
  Au     7.198131   11.168757    6.188074
  Au     5.195621    7.681754    8.536558
  Au     7.829330    7.111059    8.341089
  Au     6.942459    9.862786    8.804202
  Au     4.777284   10.400561    7.106101
  Au     2.773832    8.613747    7.655246
  Au     4.426366    7.802938    5.642007
  Fe     6.794667    8.582143    6.423171

 Multiplicity           Mult            ....    3
 Number of Electrons    NEL             ....  254
 Basis Dimension        Dim             ....  525

ORBITAL ENERGIES
----------------
                 SPIN UP ORBITALS
  NO   OCC          E(Eh)            E(eV)
   0   1.0000    -258.330086     -7029.5190
   1   1.0000     -30.890809      -840.5817
   2   1.0000     -26.605338      -723.9681
   3   1.0000     -26.590165      -723.5552
   4   1.0000     -26.571282      -723.0413
   5   1.0000      -4.401176      -119.7621
   6   1.0000      -4.401120      -119.7606
   7   1.0000      -4.396060      -119.6229
   8   1.0000      -4.395781      -119.6153
   9   1.0000      -4.395707      -119.6133
  10   1.0000      -4.395686      -119.6127
  11   1.0000      -4.395658      -119.6119
  12   1.0000      -4.395557      -119.6092
  13   1.0000      -4.394396      -119.5776
  14   1.0000      -4.394276      -119.5743
  15   1.0000      -4.388206      -119.4091
  16   1.0000      -4.388140      -119.4074
  17   1.0000      -3.903100      -106.2088
  18   1.0000      -2.646261       -72.0084
  19   1.0000      -2.613467       -71.1160
  20   1.0000      -2.575011       -70.0696
  21   1.0000      -2.522342       -68.6364
  22   1.0000      -2.522192       -68.6323
  23   1.0000      -2.521851       -68.6230
  24   1.0000      -2.521739       -68.6200
  25   1.0000      -2.520769       -68.5936
  26   1.0000      -2.517083       -68.4933
  27   1.0000      -2.516501       -68.4775
  28   1.0000      -2.516441       -68.4758
  29   1.0000      -2.515870       -68.4603
  30   1.0000      -2.515228       -68.4428
  31   1.0000      -2.515123       -68.4400
  32   1.0000      -2.514984       -68.4362
  33   1.0000      -2.514431       -68.4211
  34   1.0000      -2.514204       -68.4150
  35   1.0000      -2.513859       -68.4056
  36   1.0000      -2.513509       -68.3961
  37   1.0000      -2.513222       -68.3883
  38   1.0000      -2.512926       -68.3802
  39   1.0000      -2.512684       -68.3736
  40   1.0000      -2.511582       -68.3436
  41   1.0000      -2.511399       -68.3386
  42   1.0000      -2.511388       -68.3383
  43   1.0000      -2.510928       -68.3258
  44   1.0000      -2.510543       -68.3153
  45   1.0000      -2.508859       -68.2695
  46   1.0000      -2.508817       -68.2684
  47   1.0000      -2.508756       -68.2667
  48   1.0000      -2.507742       -68.2391
  49   1.0000      -2.507281       -68.2266
  50   1.0000      -2.506676       -68.2101
  51   1.0000      -2.506411       -68.2029
  52   1.0000      -2.505799       -68.1863
  53   1.0000      -2.503027       -68.1108
  54   1.0000      -2.502962       -68.1091
  55   1.0000      -2.502712       -68.1023
  56   1.0000      -2.502542       -68.0976
  57   1.0000      -0.553708       -15.0672
  58   1.0000      -0.553097       -15.0505
  59   1.0000      -0.543619       -14.7926
  60   1.0000      -0.528179       -14.3725
  61   1.0000      -0.508681       -13.8419
  62   1.0000      -0.497897       -13.5485
  63   1.0000      -0.474324       -12.9070
  64   1.0000      -0.463491       -12.6122
  65   1.0000      -0.460228       -12.5235
  66   1.0000      -0.460036       -12.5182
  67   1.0000      -0.456754       -12.4289
  68   1.0000      -0.452589       -12.3156
  69   1.0000      -0.450189       -12.2503
  70   1.0000      -0.447744       -12.1837
  71   1.0000      -0.444316       -12.0904
  72   1.0000      -0.442026       -12.0281
  73   1.0000      -0.441503       -12.0139
  74   1.0000      -0.437247       -11.8981
  75   1.0000      -0.435187       -11.8420
  76   1.0000      -0.434179       -11.8146
  77   1.0000      -0.429684       -11.6923
  78   1.0000      -0.428408       -11.6576
  79   1.0000      -0.425543       -11.5796
  80   1.0000      -0.425370       -11.5749
  81   1.0000      -0.423591       -11.5265
  82   1.0000      -0.419628       -11.4187
  83   1.0000      -0.409380       -11.1398
  84   1.0000      -0.404305       -11.0017
  85   1.0000      -0.402261       -10.9461
  86   1.0000      -0.401486       -10.9250
  87   1.0000      -0.398261       -10.8372
  88   1.0000      -0.396331       -10.7847
  89   1.0000      -0.392291       -10.6748
  90   1.0000      -0.391713       -10.6591
  91   1.0000      -0.388532       -10.5725
  92   1.0000      -0.387018       -10.5313
  93   1.0000      -0.384706       -10.4684
  94   1.0000      -0.383359       -10.4317
  95   1.0000      -0.380947       -10.3661
  96   1.0000      -0.374735       -10.1970
  97   1.0000      -0.372404       -10.1336
  98   1.0000      -0.369681       -10.0595
  99   1.0000      -0.368754       -10.0343
 100   1.0000      -0.368233       -10.0201
 101   1.0000      -0.366757        -9.9800
 102   1.0000      -0.366216        -9.9652
 103   1.0000      -0.365790        -9.9536
 104   1.0000      -0.363898        -9.9022
 105   1.0000      -0.363474        -9.8906
 106   1.0000      -0.358230        -9.7479
 107   1.0000      -0.357005        -9.7146
 108   1.0000      -0.356571        -9.7028
 109   1.0000      -0.356394        -9.6980
 110   1.0000      -0.356311        -9.6957
 111   1.0000      -0.352357        -9.5881
 112   1.0000      -0.351163        -9.5556
 113   1.0000      -0.350531        -9.5384
 114   1.0000      -0.347967        -9.4687
 115   1.0000      -0.347706        -9.4616
 116   1.0000      -0.341827        -9.3016
 117   1.0000      -0.341771        -9.3001
 118   1.0000      -0.340927        -9.2771
 119   1.0000      -0.337857        -9.1936
 120   1.0000      -0.328272        -8.9327
 121   1.0000      -0.322119        -8.7653
 122   1.0000      -0.321687        -8.7536
 123   1.0000      -0.316499        -8.6124
 124   1.0000      -0.301235        -8.1970
 125   1.0000      -0.270102        -7.3498
 126   1.0000      -0.240142        -6.5346
 127   1.0000      -0.220831        -6.0091
 128   0.0000      -0.117102        -3.1865
 129   0.0000      -0.096718        -2.6318
 130   0.0000      -0.072516        -1.9733
 131   0.0000      -0.066661        -1.8139
 132   0.0000      -0.066274        -1.8034

                 SPIN DOWN ORBITALS
  NO   OCC          E(Eh)            E(eV)
   0   1.0000    -258.328053     -7029.4637
   1   1.0000     -30.798676      -838.0746
   2   1.0000     -26.508974      -721.3459
   3   1.0000     -26.505447      -721.2499
   4   1.0000     -26.499963      -721.1006
   5   1.0000      -4.401212      -119.7631
   6   1.0000      -4.401150      -119.7614
   7   1.0000      -4.396631      -119.6384
   8   1.0000      -4.396550      -119.6362
   9   1.0000      -4.396542      -119.6360
  10   1.0000      -4.396418      -119.6326
  11   1.0000      -4.395837      -119.6168
  12   1.0000      -4.395716      -119.6135
  13   1.0000      -4.395203      -119.5996
  14   1.0000      -4.394819      -119.5891
  15   1.0000      -4.388616      -119.4203
  16   1.0000      -4.388547      -119.4184
  17   1.0000      -3.660358       -99.6034
  18   1.0000      -2.521788       -68.6214
  19   1.0000      -2.521656       -68.6178
  20   1.0000      -2.521390       -68.6105
  21   1.0000      -2.521344       -68.6093
  22   1.0000      -2.519314       -68.5540
  23   1.0000      -2.516971       -68.4903
  24   1.0000      -2.516364       -68.4737
  25   1.0000      -2.516207       -68.4695
  26   1.0000      -2.515958       -68.4627
  27   1.0000      -2.515282       -68.4443
  28   1.0000      -2.514717       -68.4289
  29   1.0000      -2.514531       -68.4239
  30   1.0000      -2.514062       -68.4111
  31   1.0000      -2.513476       -68.3952
  32   1.0000      -2.513350       -68.3917
  33   1.0000      -2.513070       -68.3841
  34   1.0000      -2.512865       -68.3785
  35   1.0000      -2.512782       -68.3763
  36   1.0000      -2.512319       -68.3637
  37   1.0000      -2.512316       -68.3636
  38   1.0000      -2.511742       -68.3480
  39   1.0000      -2.511704       -68.3470
  40   1.0000      -2.511468       -68.3405
  41   1.0000      -2.510496       -68.3141
  42   1.0000      -2.510186       -68.3056
  43   1.0000      -2.510064       -68.3023
  44   1.0000      -2.509945       -68.2991
  45   1.0000      -2.509281       -68.2810
  46   1.0000      -2.506965       -68.2180
  47   1.0000      -2.506788       -68.2132
  48   1.0000      -2.506347       -68.2012
  49   1.0000      -2.506078       -68.1938
  50   1.0000      -2.503882       -68.1341
  51   1.0000      -2.503810       -68.1321
  52   1.0000      -2.503011       -68.1104
  53   1.0000      -2.502750       -68.1033
  54   1.0000      -2.341767       -63.7227
  55   1.0000      -2.334936       -63.5368
  56   1.0000      -2.326628       -63.3108
  57   1.0000      -0.507114       -13.7993
  58   1.0000      -0.477963       -13.0060
  59   1.0000      -0.469571       -12.7777
  60   1.0000      -0.469324       -12.7710
  61   1.0000      -0.466292       -12.6885
  62   1.0000      -0.466084       -12.6828
  63   1.0000      -0.465416       -12.6646
  64   1.0000      -0.462346       -12.5811
  65   1.0000      -0.451123       -12.2757
  66   1.0000      -0.450679       -12.2636
  67   1.0000      -0.449831       -12.2405
  68   1.0000      -0.445359       -12.1188
  69   1.0000      -0.444271       -12.0892
  70   1.0000      -0.439829       -11.9684
  71   1.0000      -0.437654       -11.9092
  72   1.0000      -0.436749       -11.8845
  73   1.0000      -0.434613       -11.8264
  74   1.0000      -0.432405       -11.7663
  75   1.0000      -0.427187       -11.6243
  76   1.0000      -0.426443       -11.6041
  77   1.0000      -0.426407       -11.6031
  78   1.0000      -0.421036       -11.4570
  79   1.0000      -0.412440       -11.2231
  80   1.0000      -0.411141       -11.1877
  81   1.0000      -0.410252       -11.1635
  82   1.0000      -0.405078       -11.0227
  83   1.0000      -0.400108       -10.8875
  84   1.0000      -0.399117       -10.8605
  85   1.0000      -0.397531       -10.8174
  86   1.0000      -0.396440       -10.7877
  87   1.0000      -0.392352       -10.6764
  88   1.0000      -0.387271       -10.5382
  89   1.0000      -0.387115       -10.5339
  90   1.0000      -0.383553       -10.4370
  91   1.0000      -0.381673       -10.3858
  92   1.0000      -0.380203       -10.3458
  93   1.0000      -0.375764       -10.2251
  94   1.0000      -0.374408       -10.1882
  95   1.0000      -0.373646       -10.1674
  96   1.0000      -0.371172       -10.1001
  97   1.0000      -0.369003       -10.0411
  98   1.0000      -0.367708       -10.0058
  99   1.0000      -0.365715        -9.9516
 100   1.0000      -0.364775        -9.9260
 101   1.0000      -0.361959        -9.8494
 102   1.0000      -0.360705        -9.8153
 103   1.0000      -0.359098        -9.7715
 104   1.0000      -0.359010        -9.7691
 105   1.0000      -0.357737        -9.7345
 106   1.0000      -0.354206        -9.6384
 107   1.0000      -0.352764        -9.5992
 108   1.0000      -0.352662        -9.5964
 109   1.0000      -0.352168        -9.5830
 110   1.0000      -0.351968        -9.5775
 111   1.0000      -0.346579        -9.4309
 112   1.0000      -0.343992        -9.3605
 113   1.0000      -0.343152        -9.3376
 114   1.0000      -0.341612        -9.2957
 115   1.0000      -0.332435        -9.0460
 116   1.0000      -0.327256        -8.9051
 117   1.0000      -0.327092        -8.9006
 118   1.0000      -0.324976        -8.8430
 119   1.0000      -0.318361        -8.6630
 120   1.0000      -0.307044        -8.3551
 121   1.0000      -0.296719        -8.0741
 122   1.0000      -0.243947        -6.6381
 123   1.0000      -0.235789        -6.4161
 124   1.0000      -0.215800        -5.8722
 125   1.0000      -0.203298        -5.5320
 126   0.0000      -0.081421        -2.2156
 127   0.0000      -0.074076        -2.0157
 128   0.0000      -0.070915        -1.9297
 129   0.0000      -0.045626        -1.2415
 130   0.0000      -0.044273        -1.2047

MULLIKEN ATOMIC CHARGES AND SPIN POPULATIONS
--------------------------------------------
   0 Au:    0.011820    0.008707
   1 Au:    0.325748    0.001248
   2 Au:    0.041434   -0.255347
   3 Au:    0.163156   -0.190472
   4 Au:    0.042641   -0.255810
   5 Au:    0.287786   -0.085171
   6 Au:    0.042916   -0.256137
   7 Au:    0.287108   -0.085337
   8 Au:    0.163765   -0.189813
   9 Au:    0.041420   -0.255207
  10 Au:    0.325492    0.001481
  11 Au:    0.009743    0.008848
  12 Fe:   -1.743029    3.553009
Sum of atomic charges         :   -0.0000000

LOEWDIN ATOMIC CHARGES AND SPIN POPULATIONS
-------------------------------------------
   0 Au:   -0.002627   -0.026380
   1 Au:    0.111728   -0.028134
   2 Au:   -0.029271   -0.155163
   3 Au:    0.022564   -0.179626
   4 Au:   -0.028410   -0.155225
   5 Au:    0.078051   -0.196788
   6 Au:   -0.028565   -0.155406
   7 Au:    0.077820   -0.197177
   8 Au:    0.022316   -0.179449
   9 Au:   -0.029322   -0.155181
  10 Au:    0.111640   -0.027982
  11 Au:   -0.002625   -0.026228
  12 Fe:   -0.303300    3.482739

  Mayer bond orders larger than 0.100000
B(  0-Au,  1-Au) :   0.3529 B(  0-Au,  2-Au) :   0.1236 B(  0-Au,  4-Au) :   0.1239
B(  0-Au, 11-Au) :   0.4526 B(  0-Au, 12-Fe) :   0.5551 B(  1-Au,  2-Au) :   0.3193
B(  1-Au,  4-Au) :   0.3193 B(  2-Au,  3-Au) :   0.1786 B(  2-Au,  4-Au) :   0.1543
B(  2-Au,  7-Au) :   0.3162 B(  2-Au, 12-Fe) :   0.3389 B(  3-Au,  4-Au) :   0.1775
B(  3-Au,  8-Au) :   0.1784 B(  3-Au, 12-Fe) :   0.4878 B(  4-Au,  5-Au) :   0.3157
B(  4-Au, 12-Fe) :   0.3399 B(  5-Au,  9-Au) :   0.3160 B(  5-Au, 12-Fe) :   0.4556
B(  6-Au,  7-Au) :   0.3158 B(  6-Au,  8-Au) :   0.1778 B(  6-Au,  9-Au) :   0.1547
B(  6-Au, 10-Au) :   0.3195 B(  6-Au, 11-Au) :   0.1237 B(  6-Au, 12-Fe) :   0.3385
B(  7-Au, 12-Fe) :   0.4546 B(  8-Au,  9-Au) :   0.1795 B(  8-Au, 12-Fe) :   0.4871
B(  9-Au, 10-Au) :   0.3192 B(  9-Au, 11-Au) :   0.1229 B(  9-Au, 12-Fe) :   0.3378
B( 10-Au, 11-Au) :   0.3526 B( 11-Au, 12-Fe) :   0.5566

MP2 TOTAL ENERGY:    -2890.535002903 Eh
FINAL SINGLE POINT ENERGY     -2890.535002903114

DIPOLE MOMENT
-------------
                                X             Y             Z
Electronic contribution:     -0.05007      -0.04384       0.00765
Nuclear contribution   :      0.10390       0.08408       0.05212
                        -----------------------------------------
Total Dipole Moment    :      0.05383       0.04024       0.05976
                        -----------------------------------------
Magnitude (a.u.)       :      0.08994
Magnitude (Debye)      :      0.22860

Rotational constants in cm-1:     0.001767     0.001060     0.000968
Rotational constants in MHz :    52.958543    31.782223    29.009440

                             ****ORCA TERMINATED NORMALLY****
TOTAL RUN TIME: 0 days 1 hours 23 minutes 37 seconds 752 msec
