                         Program Version 5.0.3 -  RELEASE  -
|  1> !PBE def2-TZVP VERYSLOWCONV
|  2>
|  3> %scf
|  4>   AutoTRAHIter 200
|  5>   maxiter 400
|  6> end
|  7>
|  8>
|  9> %pal nprocs 6 end
| 10>
| 11> *xyzfile 0 5 pbe.xyz
| 12>
| 13> $new_job
| 14>
| 15> !PBE def2-TZVP VERYSLOWCONV
| 16>
| 17> %scf
| 18>   AutoTRAHIter 200
| 19>   maxiter 400
| 20> end
| 21>
| 22>
| 23> %pal nprocs 6 end
| 24>
| 25> *xyzfile 0 3 pbe.xyz
| 26>
| 27>
| 28>
| 29>
| 30>
| 31>                          ****END OF INPUT****
 Total Charge           Charge          ....    0
 Multiplicity           Mult            ....    5
 Number of Electrons    NEL             ....  254
FINAL SINGLE POINT ENERGY     -2893.408213564835

CARTESIAN COORDINATES (ANGSTROEM)
---------------------------------
  Au     6.540330    7.326721    4.145086
  Au     9.087409    7.211841    3.177305
  Au     8.934277    6.859719    5.890226
  Au     9.292394    9.348486    7.130298
  Au     8.505809    9.570835    4.445429
  Au     7.198131   11.168757    6.188074
  Au     5.195621    7.681754    8.536558
  Au     7.829330    7.111059    8.341089
  Au     6.942459    9.862786    8.804202
  Au     4.777284   10.400561    7.106101
  Au     2.773832    8.613747    7.655246
  Au     4.426366    7.802938    5.642007
  Fe     6.794667    8.582143    6.423171

 Multiplicity           Mult            ....    3
 Number of Electrons    NEL             ....  254
 Basis Dimension        Dim             ....  525

ORBITAL ENERGIES
----------------
                 SPIN UP ORBITALS
  NO   OCC          E(Eh)            E(eV)
   0   1.0000    -254.743060     -6931.9111
   1   1.0000     -29.579339      -804.8947
   2   1.0000     -25.522117      -694.4921
   3   1.0000     -25.517553      -694.3679
   4   1.0000     -25.505637      -694.0437
   5   1.0000      -4.029068      -109.6365
   6   1.0000      -4.029033      -109.6356
   7   1.0000      -4.025145      -109.5298
   8   1.0000      -4.024851      -109.5218
   9   1.0000      -4.023604      -109.4878
  10   1.0000      -4.023547      -109.4863
  11   1.0000      -4.022373      -109.4543
  12   1.0000      -4.022351      -109.4537
  13   1.0000      -4.022308      -109.4526
  14   1.0000      -4.022272      -109.4516
  15   1.0000      -4.018102      -109.3381
  16   1.0000      -4.018083      -109.3376
  17   1.0000      -3.355897       -91.3186
  18   1.0000      -2.246368       -61.1268
  19   1.0000      -2.245245       -61.0962
  20   1.0000      -2.245181       -61.0945
  21   1.0000      -2.244664       -61.0804
  22   1.0000      -2.244642       -61.0798
  23   1.0000      -2.240916       -60.9784
  24   1.0000      -2.240315       -60.9621
  25   1.0000      -2.239645       -60.9438
  26   1.0000      -2.239548       -60.9412
  27   1.0000      -2.239431       -60.9380
  28   1.0000      -2.239045       -60.9275
  29   1.0000      -2.238889       -60.9233
  30   1.0000      -2.238391       -60.9097
  31   1.0000      -2.238327       -60.9080
  32   1.0000      -2.237802       -60.8937
  33   1.0000      -2.237545       -60.8867
  34   1.0000      -2.236103       -60.8475
  35   1.0000      -2.235931       -60.8428
  36   1.0000      -2.235563       -60.8328
  37   1.0000      -2.235129       -60.8210
  38   1.0000      -2.234670       -60.8085
  39   1.0000      -2.234222       -60.7963
  40   1.0000      -2.234143       -60.7941
  41   1.0000      -2.234089       -60.7926
  42   1.0000      -2.233094       -60.7656
  43   1.0000      -2.232931       -60.7611
  44   1.0000      -2.231862       -60.7321
  45   1.0000      -2.231814       -60.7307
  46   1.0000      -2.231788       -60.7300
  47   1.0000      -2.231713       -60.7280
  48   1.0000      -2.230972       -60.7078
  49   1.0000      -2.230469       -60.6941
  50   1.0000      -2.229422       -60.6657
  51   1.0000      -2.229397       -60.6650
  52   1.0000      -2.228138       -60.6307
  53   1.0000      -2.228093       -60.6295
  54   1.0000      -2.184879       -59.4536
  55   1.0000      -2.174097       -59.1602
  56   1.0000      -2.150400       -58.5154
  57   1.0000      -0.424531       -11.5521
  58   1.0000      -0.384712       -10.4685
  59   1.0000      -0.383898       -10.4464
  60   1.0000      -0.379377       -10.3234
  61   1.0000      -0.370060       -10.0698
  62   1.0000      -0.368992       -10.0408
  63   1.0000      -0.368963       -10.0400
  64   1.0000      -0.359995        -9.7960
  65   1.0000      -0.351245        -9.5578
  66   1.0000      -0.350131        -9.5276
  67   1.0000      -0.343692        -9.3523
  68   1.0000      -0.340845        -9.2749
  69   1.0000      -0.338449        -9.2097
  70   1.0000      -0.337761        -9.1910
  71   1.0000      -0.334026        -9.0893
  72   1.0000      -0.332972        -9.0606
  73   1.0000      -0.330285        -8.9875
  74   1.0000      -0.329611        -8.9692
  75   1.0000      -0.327908        -8.9228
  76   1.0000      -0.327817        -8.9203
  77   1.0000      -0.322956        -8.7881
  78   1.0000      -0.322817        -8.7843
  79   1.0000      -0.319998        -8.7076
  80   1.0000      -0.315961        -8.5977
  81   1.0000      -0.315861        -8.5950
  82   1.0000      -0.309610        -8.4249
  83   1.0000      -0.302051        -8.2192
  84   1.0000      -0.299746        -8.1565
  85   1.0000      -0.297730        -8.1016
  86   1.0000      -0.293816        -7.9952
  87   1.0000      -0.293391        -7.9836
  88   1.0000      -0.288879        -7.8608
  89   1.0000      -0.288378        -7.8472
  90   1.0000      -0.287940        -7.8352
  91   1.0000      -0.287537        -7.8243
  92   1.0000      -0.284689        -7.7468
  93   1.0000      -0.279801        -7.6138
  94   1.0000      -0.277907        -7.5622
  95   1.0000      -0.277326        -7.5464
  96   1.0000      -0.277005        -7.5377
  97   1.0000      -0.275865        -7.5067
  98   1.0000      -0.275288        -7.4910
  99   1.0000      -0.269557        -7.3350
 100   1.0000      -0.268813        -7.3148
 101   1.0000      -0.263915        -7.1815
 102   1.0000      -0.263396        -7.1674
 103   1.0000      -0.262880        -7.1533
 104   1.0000      -0.261721        -7.1218
 105   1.0000      -0.261513        -7.1161
 106   1.0000      -0.260252        -7.0818
 107   1.0000      -0.260182        -7.0799
 108   1.0000      -0.257313        -7.0018
 109   1.0000      -0.257116        -6.9965
 110   1.0000      -0.255500        -6.9525
 111   1.0000      -0.255344        -6.9483
 112   1.0000      -0.254022        -6.9123
 113   1.0000      -0.252984        -6.8840
 114   1.0000      -0.250132        -6.8064
 115   1.0000      -0.247576        -6.7369
 116   1.0000      -0.246706        -6.7132
 117   1.0000      -0.245525        -6.6811
 118   1.0000      -0.241857        -6.5813
 119   1.0000      -0.241824        -6.5804
 120   1.0000      -0.240280        -6.5383
 121   1.0000      -0.237780        -6.4703
 122   1.0000      -0.235280        -6.4023
 123   1.0000      -0.231961        -6.3120
 124   1.0000      -0.229698        -6.2504
 125   1.0000      -0.227883        -6.2010
 126   1.0000      -0.208470        -5.6728
 127   1.0000      -0.200156        -5.4465
 128   0.0000      -0.179926        -4.8960
 129   0.0000      -0.166650        -4.5348
 130   0.0000      -0.135620        -3.6904
 131   0.0000      -0.135189        -3.6787
 132   0.0000      -0.130248        -3.5442

                 SPIN DOWN ORBITALS
  NO   OCC          E(Eh)            E(eV)
   0   1.0000    -254.742418     -6931.8936
   1   1.0000     -29.524677      -803.4073
   2   1.0000     -25.477240      -693.2710
   3   1.0000     -25.475981      -693.2367
   4   1.0000     -25.468266      -693.0267
   5   1.0000      -4.029031      -109.6355
   6   1.0000      -4.028993      -109.6345
   7   1.0000      -4.024194      -109.5039
   8   1.0000      -4.024183      -109.5036
   9   1.0000      -4.024137      -109.5023
  10   1.0000      -4.023888      -109.4956
  11   1.0000      -4.022782      -109.4655
  12   1.0000      -4.022756      -109.4648
  13   1.0000      -4.022718      -109.4637
  14   1.0000      -4.022686      -109.4629
  15   1.0000      -4.018503      -109.3490
  16   1.0000      -4.018483      -109.3485
  17   1.0000      -3.231674       -87.9383
  18   1.0000      -2.245521       -61.1037
  19   1.0000      -2.245460       -61.1021
  20   1.0000      -2.245216       -61.0954
  21   1.0000      -2.244106       -61.0652
  22   1.0000      -2.244060       -61.0640
  23   1.0000      -2.240620       -60.9704
  24   1.0000      -2.240038       -60.9545
  25   1.0000      -2.240024       -60.9541
  26   1.0000      -2.239523       -60.9405
  27   1.0000      -2.239395       -60.9370
  28   1.0000      -2.238883       -60.9231
  29   1.0000      -2.238779       -60.9203
  30   1.0000      -2.238665       -60.9172
  31   1.0000      -2.238122       -60.9024
  32   1.0000      -2.237421       -60.8833
  33   1.0000      -2.237028       -60.8726
  34   1.0000      -2.236856       -60.8679
  35   1.0000      -2.236808       -60.8666
  36   1.0000      -2.236339       -60.8539
  37   1.0000      -2.235470       -60.8302
  38   1.0000      -2.234910       -60.8150
  39   1.0000      -2.234555       -60.8053
  40   1.0000      -2.234399       -60.8011
  41   1.0000      -2.234324       -60.7990
  42   1.0000      -2.233454       -60.7754
  43   1.0000      -2.233271       -60.7704
  44   1.0000      -2.232305       -60.7441
  45   1.0000      -2.232265       -60.7430
  46   1.0000      -2.232240       -60.7423
  47   1.0000      -2.232194       -60.7411
  48   1.0000      -2.230560       -60.6966
  49   1.0000      -2.230112       -60.6844
  50   1.0000      -2.229956       -60.6802
  51   1.0000      -2.229860       -60.6776
  52   1.0000      -2.228516       -60.6410
  53   1.0000      -2.228457       -60.6394
  54   1.0000      -2.052853       -55.8610
  55   1.0000      -2.051947       -55.8363
  56   1.0000      -2.039764       -55.5048
  57   1.0000      -0.421620       -11.4729
  58   1.0000      -0.385440       -10.4883
  59   1.0000      -0.383299       -10.4301
  60   1.0000      -0.377254       -10.2656
  61   1.0000      -0.367351        -9.9961
  62   1.0000      -0.365267        -9.9394
  63   1.0000      -0.364954        -9.9309
  64   1.0000      -0.358457        -9.7541
  65   1.0000      -0.348780        -9.4908
  66   1.0000      -0.346849        -9.4382
  67   1.0000      -0.345197        -9.3933
  68   1.0000      -0.341454        -9.2914
  69   1.0000      -0.339458        -9.2371
  70   1.0000      -0.335345        -9.1252
  71   1.0000      -0.334426        -9.1002
  72   1.0000      -0.331830        -9.0296
  73   1.0000      -0.330052        -8.9812
  74   1.0000      -0.329178        -8.9574
  75   1.0000      -0.325404        -8.8547
  76   1.0000      -0.323821        -8.8116
  77   1.0000      -0.322853        -8.7853
  78   1.0000      -0.321068        -8.7367
  79   1.0000      -0.316337        -8.6080
  80   1.0000      -0.309096        -8.4109
  81   1.0000      -0.308881        -8.4051
  82   1.0000      -0.304738        -8.2923
  83   1.0000      -0.304093        -8.2748
  84   1.0000      -0.299873        -8.1600
  85   1.0000      -0.298417        -8.1203
  86   1.0000      -0.294424        -8.0117
  87   1.0000      -0.291889        -7.9427
  88   1.0000      -0.290336        -7.9004
  89   1.0000      -0.287629        -7.8268
  90   1.0000      -0.286087        -7.7848
  91   1.0000      -0.285272        -7.7626
  92   1.0000      -0.285214        -7.7611
  93   1.0000      -0.278700        -7.5838
  94   1.0000      -0.276340        -7.5196
  95   1.0000      -0.276244        -7.5170
  96   1.0000      -0.274533        -7.4704
  97   1.0000      -0.274412        -7.4671
  98   1.0000      -0.273370        -7.4388
  99   1.0000      -0.270940        -7.3727
 100   1.0000      -0.269030        -7.3207
 101   1.0000      -0.264469        -7.1966
 102   1.0000      -0.264006        -7.1840
 103   1.0000      -0.263485        -7.1698
 104   1.0000      -0.262536        -7.1440
 105   1.0000      -0.262243        -7.1360
 106   1.0000      -0.260919        -7.1000
 107   1.0000      -0.258991        -7.0475
 108   1.0000      -0.257612        -7.0100
 109   1.0000      -0.257199        -6.9987
 110   1.0000      -0.256374        -6.9763
 111   1.0000      -0.256121        -6.9694
 112   1.0000      -0.253279        -6.8921
 113   1.0000      -0.249141        -6.7795
 114   1.0000      -0.248884        -6.7725
 115   1.0000      -0.246871        -6.7177
 116   1.0000      -0.246330        -6.7030
 117   1.0000      -0.243292        -6.6203
 118   1.0000      -0.236820        -6.4442
 119   1.0000      -0.235776        -6.4158
 120   1.0000      -0.235448        -6.4069
 121   1.0000      -0.222669        -6.0591
 122   1.0000      -0.209735        -5.7072
 123   1.0000      -0.196508        -5.3472
 124   1.0000      -0.191585        -5.2133
 125   1.0000      -0.166660        -4.5351
 126   0.0000      -0.160791        -4.3753
 127   0.0000      -0.150452        -4.0940
 128   0.0000      -0.146211        -3.9786
 129   0.0000      -0.136523        -3.7150
 130   0.0000      -0.131889        -3.5889

MULLIKEN ATOMIC CHARGES AND SPIN POPULATIONS
--------------------------------------------
   0 Au:    0.041511    0.058858
   1 Au:    0.368269   -0.030464
   2 Au:    0.073941   -0.162432
   3 Au:    0.208135   -0.104777
   4 Au:    0.075035   -0.162827
   5 Au:    0.316485   -0.040935
   6 Au:    0.074817   -0.163110
   7 Au:    0.316268   -0.041133
   8 Au:    0.208054   -0.104379
   9 Au:    0.074068   -0.162315
  10 Au:    0.368120   -0.030696
  11 Au:    0.040493    0.058928
  12 Fe:   -2.165195    2.885282
Sum of atomic charges         :   -0.0000000

LOEWDIN ATOMIC CHARGES AND SPIN POPULATIONS
-------------------------------------------
   0 Au:    0.042322    0.025016
   1 Au:    0.087740   -0.045664
   2 Au:   -0.006116   -0.109913
   3 Au:    0.058212   -0.108672
   4 Au:   -0.005293   -0.109959
   5 Au:    0.114255   -0.104561
   6 Au:   -0.005615   -0.110199
   7 Au:    0.114103   -0.104862
   8 Au:    0.057941   -0.108497
   9 Au:   -0.006195   -0.110042
  10 Au:    0.087672   -0.045809
  11 Au:    0.042378    0.025110
  12 Fe:   -0.581403    2.908052

  Mayer bond orders larger than 0.100000
B(  0-Au,  1-Au) :   0.3580 B(  0-Au,  2-Au) :   0.1481 B(  0-Au,  4-Au) :   0.1483
B(  0-Au, 11-Au) :   0.4725 B(  0-Au, 12-Fe) :   0.5808 B(  1-Au,  2-Au) :   0.3512
B(  1-Au,  4-Au) :   0.3509 B(  2-Au,  3-Au) :   0.2331 B(  2-Au,  4-Au) :   0.1575
B(  2-Au,  7-Au) :   0.3294 B(  2-Au, 12-Fe) :   0.4044 B(  3-Au,  4-Au) :   0.2314
B(  3-Au,  5-Au) :   0.1196 B(  3-Au,  7-Au) :   0.1183 B(  3-Au,  8-Au) :   0.1515
B(  3-Au, 12-Fe) :   0.5444 B(  4-Au,  5-Au) :   0.3290 B(  4-Au, 12-Fe) :   0.4054
B(  5-Au,  8-Au) :   0.1181 B(  5-Au,  9-Au) :   0.3291 B(  5-Au, 12-Fe) :   0.4944
B(  6-Au,  7-Au) :   0.3292 B(  6-Au,  8-Au) :   0.2314 B(  6-Au,  9-Au) :   0.1581
B(  6-Au, 10-Au) :   0.3512 B(  6-Au, 11-Au) :   0.1485 B(  6-Au, 12-Fe) :   0.4043
B(  7-Au,  8-Au) :   0.1206 B(  7-Au, 12-Fe) :   0.4931 B(  8-Au,  9-Au) :   0.2336
B(  8-Au, 12-Fe) :   0.5439 B(  9-Au, 10-Au) :   0.3512 B(  9-Au, 11-Au) :   0.1475
B(  9-Au, 12-Fe) :   0.4032 B( 10-Au, 11-Au) :   0.3577 B( 11-Au, 12-Fe) :   0.5816

FINAL SINGLE POINT ENERGY     -2893.394832262011

DIPOLE MOMENT
-------------
                                X             Y             Z
Electronic contribution:      0.02183       0.01199       0.09189
Nuclear contribution   :      0.10390       0.08408       0.05212
                        -----------------------------------------
Total Dipole Moment    :      0.12573       0.09607       0.14401
                        -----------------------------------------
Magnitude (a.u.)       :      0.21396
Magnitude (Debye)      :      0.54383

Rotational constants in cm-1:     0.001767     0.001060     0.000968
Rotational constants in MHz :    52.958543    31.782223    29.009440

                             ****ORCA TERMINATED NORMALLY****
TOTAL RUN TIME: 0 days 0 hours 21 minutes 17 seconds 244 msec
