                         Program Version 5.0.3 -  RELEASE  -
|  1> !R2SCAN def2-TZVP VERYSLOWCONV
|  2> !KDIIS
|  3> %scf
|  4>   AutoTRAHIter 200
|  5>   maxiter 400
|  6> end
|  7>
|  8> %pal nprocs 6 end
|  9>
| 10> *xyzfile 0 5 pbe.xyz
| 11>
| 12> $new_job
| 13>
| 14> !R2SCAN def2-TZVP VERYSLOWCONV
| 15> !KDIIS
| 16> %scf
| 17>   AutoTRAHIter 200
| 18>   maxiter 400
| 19> end
| 20>
| 21>
| 22> %pal nprocs 6 end
| 23>
| 24> *xyzfile 0 3 pbe.xyz
| 25>
| 26>
| 27>
| 28>
| 29>
| 30>                          ****END OF INPUT****
 Total Charge           Charge          ....    0
 Multiplicity           Mult            ....    5
 Number of Electrons    NEL             ....  254
FINAL SINGLE POINT ENERGY     -2893.811472576660

CARTESIAN COORDINATES (ANGSTROEM)
---------------------------------
  Au     6.540330    7.326721    4.145086
  Au     9.087409    7.211841    3.177305
  Au     8.934277    6.859719    5.890226
  Au     9.292394    9.348486    7.130298
  Au     8.505809    9.570835    4.445429
  Au     7.198131   11.168757    6.188074
  Au     5.195621    7.681754    8.536558
  Au     7.829330    7.111059    8.341089
  Au     6.942459    9.862786    8.804202
  Au     4.777284   10.400561    7.106101
  Au     2.773832    8.613747    7.655246
  Au     4.426366    7.802938    5.642007
  Fe     6.794667    8.582143    6.423171

 Multiplicity           Mult            ....    3
 Number of Electrons    NEL             ....  254
 Basis Dimension        Dim             ....  525

ORBITAL ENERGIES
----------------
                 SPIN UP ORBITALS
  NO   OCC          E(Eh)            E(eV)
   0   1.0000    -255.633908     -6956.1523
   1   1.0000     -29.933457      -814.5308
   2   1.0000     -25.779034      -701.4832
   3   1.0000     -25.756197      -700.8618
   4   1.0000     -25.756023      -700.8570
   5   1.0000      -4.117407      -112.0404
   6   1.0000      -4.117394      -112.0400
   7   1.0000      -4.117035      -112.0302
   8   1.0000      -4.117003      -112.0294
   9   1.0000      -4.116936      -112.0275
  10   1.0000      -4.116906      -112.0267
  11   1.0000      -4.113692      -111.9392
  12   1.0000      -4.113361      -111.9303
  13   1.0000      -4.113147      -111.9244
  14   1.0000      -4.113084      -111.9227
  15   1.0000      -4.110879      -111.8627
  16   1.0000      -4.110867      -111.8624
  17   1.0000      -3.512852       -95.5896
  18   1.0000      -2.311071       -62.8874
  19   1.0000      -2.309349       -62.8406
  20   1.0000      -2.308982       -62.8306
  21   1.0000      -2.308616       -62.8206
  22   1.0000      -2.308108       -62.8068
  23   1.0000      -2.308015       -62.8043
  24   1.0000      -2.304487       -62.7083
  25   1.0000      -2.304091       -62.6975
  26   1.0000      -2.304046       -62.6963
  27   1.0000      -2.303999       -62.6950
  28   1.0000      -2.303675       -62.6862
  29   1.0000      -2.303556       -62.6829
  30   1.0000      -2.302874       -62.6644
  31   1.0000      -2.302590       -62.6567
  32   1.0000      -2.302179       -62.6455
  33   1.0000      -2.301979       -62.6400
  34   1.0000      -2.301621       -62.6303
  35   1.0000      -2.300650       -62.6039
  36   1.0000      -2.299954       -62.5849
  37   1.0000      -2.299895       -62.5833
  38   1.0000      -2.299181       -62.5639
  39   1.0000      -2.298980       -62.5584
  40   1.0000      -2.298753       -62.5522
  41   1.0000      -2.298618       -62.5486
  42   1.0000      -2.298544       -62.5466
  43   1.0000      -2.298144       -62.5357
  44   1.0000      -2.297856       -62.5279
  45   1.0000      -2.297010       -62.5048
  46   1.0000      -2.296935       -62.5028
  47   1.0000      -2.296849       -62.5004
  48   1.0000      -2.295895       -62.4745
  49   1.0000      -2.294607       -62.4394
  50   1.0000      -2.294591       -62.4390
  51   1.0000      -2.293923       -62.4208
  52   1.0000      -2.293803       -62.4176
  53   1.0000      -2.291466       -62.3539
  54   1.0000      -2.290874       -62.3379
  55   1.0000      -2.262073       -61.5541
  56   1.0000      -2.260883       -61.5217
  57   1.0000      -0.431870       -11.7518
  58   1.0000      -0.394119       -10.7245
  59   1.0000      -0.392089       -10.6693
  60   1.0000      -0.385255       -10.4833
  61   1.0000      -0.383658       -10.4399
  62   1.0000      -0.383170       -10.4266
  63   1.0000      -0.383086       -10.4243
  64   1.0000      -0.375446       -10.2164
  65   1.0000      -0.360564        -9.8114
  66   1.0000      -0.357755        -9.7350
  67   1.0000      -0.355914        -9.6849
  68   1.0000      -0.352206        -9.5840
  69   1.0000      -0.348942        -9.4952
  70   1.0000      -0.347662        -9.4604
  71   1.0000      -0.346690        -9.4339
  72   1.0000      -0.346639        -9.4325
  73   1.0000      -0.340861        -9.2753
  74   1.0000      -0.340755        -9.2724
  75   1.0000      -0.340613        -9.2686
  76   1.0000      -0.335495        -9.1293
  77   1.0000      -0.331528        -9.0213
  78   1.0000      -0.331493        -9.0204
  79   1.0000      -0.331127        -9.0104
  80   1.0000      -0.330079        -8.9819
  81   1.0000      -0.320464        -8.7203
  82   1.0000      -0.320249        -8.7144
  83   1.0000      -0.317829        -8.6486
  84   1.0000      -0.309715        -8.4278
  85   1.0000      -0.306994        -8.3537
  86   1.0000      -0.305884        -8.3235
  87   1.0000      -0.301180        -8.1955
  88   1.0000      -0.299379        -8.1465
  89   1.0000      -0.297423        -8.0933
  90   1.0000      -0.296897        -8.0790
  91   1.0000      -0.296597        -8.0708
  92   1.0000      -0.293246        -7.9796
  93   1.0000      -0.291400        -7.9294
  94   1.0000      -0.288871        -7.8606
  95   1.0000      -0.288181        -7.8418
  96   1.0000      -0.285427        -7.7669
  97   1.0000      -0.285059        -7.7568
  98   1.0000      -0.284088        -7.7304
  99   1.0000      -0.279020        -7.5925
 100   1.0000      -0.277725        -7.5573
 101   1.0000      -0.277482        -7.5507
 102   1.0000      -0.273387        -7.4392
 103   1.0000      -0.271991        -7.4012
 104   1.0000      -0.270095        -7.3496
 105   1.0000      -0.270036        -7.3480
 106   1.0000      -0.269884        -7.3439
 107   1.0000      -0.268656        -7.3105
 108   1.0000      -0.267877        -7.2893
 109   1.0000      -0.266972        -7.2647
 110   1.0000      -0.266807        -7.2602
 111   1.0000      -0.264027        -7.1846
 112   1.0000      -0.263386        -7.1671
 113   1.0000      -0.263197        -7.1620
 114   1.0000      -0.262082        -7.1316
 115   1.0000      -0.257130        -6.9969
 116   1.0000      -0.255750        -6.9593
 117   1.0000      -0.255544        -6.9537
 118   1.0000      -0.254027        -6.9124
 119   1.0000      -0.252383        -6.8677
 120   1.0000      -0.250996        -6.8300
 121   1.0000      -0.246994        -6.7210
 122   1.0000      -0.242329        -6.5941
 123   1.0000      -0.241474        -6.5708
 124   1.0000      -0.238866        -6.4999
 125   1.0000      -0.232026        -6.3137
 126   1.0000      -0.218022        -5.9327
 127   1.0000      -0.203293        -5.5319
 128   0.0000      -0.180014        -4.8984
 129   0.0000      -0.161404        -4.3920
 130   0.0000      -0.130990        -3.5644
 131   0.0000      -0.130425        -3.5490
 132   0.0000      -0.127464        -3.4685

                 SPIN DOWN ORBITALS
  NO   OCC          E(Eh)            E(eV)
   0   1.0000    -255.632889     -6956.1246
   1   1.0000     -29.855618      -812.4127
   2   1.0000     -25.710784      -699.6260
   3   1.0000     -25.701511      -699.3737
   4   1.0000     -25.700815      -699.3547
   5   1.0000      -4.117861      -112.0527
   6   1.0000      -4.117858      -112.0526
   7   1.0000      -4.117124      -112.0326
   8   1.0000      -4.117093      -112.0318
   9   1.0000      -4.117047      -112.0305
  10   1.0000      -4.117013      -112.0296
  11   1.0000      -4.114252      -111.9545
  12   1.0000      -4.114187      -111.9527
  13   1.0000      -4.112931      -111.9185
  14   1.0000      -4.112601      -111.9096
  15   1.0000      -4.111349      -111.8755
  16   1.0000      -4.111334      -111.8751
  17   1.0000      -3.341454       -90.9256
  18   1.0000      -2.309605       -62.8475
  19   1.0000      -2.309358       -62.8408
  20   1.0000      -2.308304       -62.8122
  21   1.0000      -2.307818       -62.7989
  22   1.0000      -2.306785       -62.7708
  23   1.0000      -2.304266       -62.7023
  24   1.0000      -2.304046       -62.6963
  25   1.0000      -2.303921       -62.6929
  26   1.0000      -2.303880       -62.6918
  27   1.0000      -2.303687       -62.6865
  28   1.0000      -2.303422       -62.6793
  29   1.0000      -2.302287       -62.6484
  30   1.0000      -2.302187       -62.6457
  31   1.0000      -2.301964       -62.6396
  32   1.0000      -2.301637       -62.6307
  33   1.0000      -2.301028       -62.6142
  34   1.0000      -2.300990       -62.6131
  35   1.0000      -2.300015       -62.5866
  36   1.0000      -2.299960       -62.5851
  37   1.0000      -2.299683       -62.5775
  38   1.0000      -2.299212       -62.5647
  39   1.0000      -2.299159       -62.5633
  40   1.0000      -2.298773       -62.5528
  41   1.0000      -2.298685       -62.5504
  42   1.0000      -2.298609       -62.5483
  43   1.0000      -2.298191       -62.5370
  44   1.0000      -2.298164       -62.5362
  45   1.0000      -2.297832       -62.5272
  46   1.0000      -2.297686       -62.5232
  47   1.0000      -2.297036       -62.5055
  48   1.0000      -2.295446       -62.4623
  49   1.0000      -2.295426       -62.4617
  50   1.0000      -2.294259       -62.4300
  51   1.0000      -2.294072       -62.4249
  52   1.0000      -2.291616       -62.3580
  53   1.0000      -2.291023       -62.3419
  54   1.0000      -2.117038       -57.6075
  55   1.0000      -2.105277       -57.2875
  56   1.0000      -2.104069       -57.2546
  57   1.0000      -0.429836       -11.6964
  58   1.0000      -0.393860       -10.7175
  59   1.0000      -0.391179       -10.6445
  60   1.0000      -0.386050       -10.5050
  61   1.0000      -0.375659       -10.2222
  62   1.0000      -0.375307       -10.2126
  63   1.0000      -0.375168       -10.2089
  64   1.0000      -0.367911       -10.0114
  65   1.0000      -0.356734        -9.7072
  66   1.0000      -0.356608        -9.7038
  67   1.0000      -0.356533        -9.7018
  68   1.0000      -0.351872        -9.5749
  69   1.0000      -0.349946        -9.5225
  70   1.0000      -0.345843        -9.4109
  71   1.0000      -0.343870        -9.3572
  72   1.0000      -0.341655        -9.2969
  73   1.0000      -0.339680        -9.2432
  74   1.0000      -0.339206        -9.2303
  75   1.0000      -0.336995        -9.1701
  76   1.0000      -0.333234        -9.0678
  77   1.0000      -0.331991        -9.0339
  78   1.0000      -0.327562        -8.9134
  79   1.0000      -0.325192        -8.8489
  80   1.0000      -0.319627        -8.6975
  81   1.0000      -0.317530        -8.6404
  82   1.0000      -0.314239        -8.5509
  83   1.0000      -0.312988        -8.5168
  84   1.0000      -0.308430        -8.3928
  85   1.0000      -0.308182        -8.3861
  86   1.0000      -0.302670        -8.2361
  87   1.0000      -0.300231        -8.1697
  88   1.0000      -0.300113        -8.1665
  89   1.0000      -0.297167        -8.0863
  90   1.0000      -0.294576        -8.0158
  91   1.0000      -0.293613        -7.9896
  92   1.0000      -0.292211        -7.9515
  93   1.0000      -0.286760        -7.8031
  94   1.0000      -0.285733        -7.7752
  95   1.0000      -0.285627        -7.7723
  96   1.0000      -0.284773        -7.7491
  97   1.0000      -0.283778        -7.7220
  98   1.0000      -0.282647        -7.6912
  99   1.0000      -0.280390        -7.6298
 100   1.0000      -0.277523        -7.5518
 101   1.0000      -0.274230        -7.4622
 102   1.0000      -0.273664        -7.4468
 103   1.0000      -0.273399        -7.4396
 104   1.0000      -0.272373        -7.4116
 105   1.0000      -0.270253        -7.3540
 106   1.0000      -0.269902        -7.3444
 107   1.0000      -0.267752        -7.2859
 108   1.0000      -0.265959        -7.2371
 109   1.0000      -0.264982        -7.2105
 110   1.0000      -0.264785        -7.2052
 111   1.0000      -0.264698        -7.2028
 112   1.0000      -0.260825        -7.0974
 113   1.0000      -0.258005        -7.0207
 114   1.0000      -0.256532        -6.9806
 115   1.0000      -0.254377        -6.9220
 116   1.0000      -0.254290        -6.9196
 117   1.0000      -0.249836        -6.7984
 118   1.0000      -0.244367        -6.6496
 119   1.0000      -0.243431        -6.6241
 120   1.0000      -0.242171        -6.5898
 121   1.0000      -0.224825        -6.1178
 122   1.0000      -0.212842        -5.7917
 123   1.0000      -0.200826        -5.4648
 124   1.0000      -0.184813        -5.0290
 125   1.0000      -0.177114        -4.8195
 126   0.0000      -0.155299        -4.2259
 127   0.0000      -0.147301        -4.0083
 128   0.0000      -0.144933        -3.9438
 129   0.0000      -0.131237        -3.5711
 130   0.0000      -0.126481        -3.4417

MULLIKEN ATOMIC CHARGES AND SPIN POPULATIONS
--------------------------------------------
   0 Au:    0.036862    0.026012
   1 Au:    0.343706    0.033918
   2 Au:    0.071904   -0.173860
   3 Au:    0.167496   -0.183083
   4 Au:    0.073022   -0.174549
   5 Au:    0.288226   -0.093988
   6 Au:    0.072458   -0.175363
   7 Au:    0.288094   -0.094297
   8 Au:    0.167414   -0.182848
   9 Au:    0.072147   -0.173623
  10 Au:    0.343695    0.034122
  11 Au:    0.036046    0.026341
  12 Fe:   -1.961069    3.131218
Sum of atomic charges         :   -0.0000000

LOEWDIN ATOMIC CHARGES AND SPIN POPULATIONS
-------------------------------------------
   0 Au:    0.026480   -0.010295
   1 Au:    0.093636   -0.012086
   2 Au:   -0.002291   -0.104929
   3 Au:    0.042934   -0.162529
   4 Au:   -0.001455   -0.104989
   5 Au:    0.093903   -0.164423
   6 Au:   -0.001848   -0.105448
   7 Au:    0.093680   -0.165032
   8 Au:    0.042693   -0.162418
   9 Au:   -0.002346   -0.104940
  10 Au:    0.093620   -0.011960
  11 Au:    0.026584   -0.010024
  12 Fe:   -0.505590    3.119074

  Mayer bond orders larger than 0.100000
B(  0-Au,  1-Au) :   0.3536 B(  0-Au,  2-Au) :   0.1163 B(  0-Au,  4-Au) :   0.1166
B(  0-Au, 11-Au) :   0.4860 B(  0-Au, 12-Fe) :   0.5779 B(  1-Au,  2-Au) :   0.3370
B(  1-Au,  4-Au) :   0.3366 B(  2-Au,  3-Au) :   0.2079 B(  2-Au,  4-Au) :   0.1392
B(  2-Au,  7-Au) :   0.3358 B(  2-Au, 12-Fe) :   0.4365 B(  3-Au,  4-Au) :   0.2060
B(  3-Au,  8-Au) :   0.1887 B(  3-Au, 12-Fe) :   0.5194 B(  4-Au,  5-Au) :   0.3354
B(  4-Au, 12-Fe) :   0.4380 B(  5-Au,  9-Au) :   0.3354 B(  5-Au, 12-Fe) :   0.4668
B(  6-Au,  7-Au) :   0.3356 B(  6-Au,  8-Au) :   0.2060 B(  6-Au,  9-Au) :   0.1397
B(  6-Au, 10-Au) :   0.3366 B(  6-Au, 11-Au) :   0.1166 B(  6-Au, 12-Fe) :   0.4368
B(  7-Au, 12-Fe) :   0.4653 B(  8-Au,  9-Au) :   0.2084 B(  8-Au, 12-Fe) :   0.5188
B(  9-Au, 10-Au) :   0.3371 B(  9-Au, 11-Au) :   0.1158 B(  9-Au, 12-Fe) :   0.4355
B( 10-Au, 11-Au) :   0.3534 B( 11-Au, 12-Fe) :   0.5788

FINAL SINGLE POINT ENERGY     -2893.839583281912

DIPOLE MOMENT
-------------
                                X             Y             Z
Electronic contribution:     -0.02737      -0.02548       0.03537
Nuclear contribution   :      0.10390       0.08408       0.05212
                        -----------------------------------------
Total Dipole Moment    :      0.07653       0.05860       0.08748
                        -----------------------------------------
Magnitude (a.u.)       :      0.13017
Magnitude (Debye)      :      0.33087

Rotational constants in cm-1:     0.001767     0.001060     0.000968
Rotational constants in MHz :    52.958543    31.782223    29.009440

                             ****ORCA TERMINATED NORMALLY****
TOTAL RUN TIME: 0 days 0 hours 9 minutes 53 seconds 942 msec
