                         Program Version 5.0.3 -  RELEASE  -
|  1> !CASSCF def2-TZVP def2-TZVP/C
|  2> !MOREAD RIJCOSX
|  3> %maxcore 6000
|  4> %moinp "pbe.qro"
|  5> %pal nprocs 2 end
|  6>
|  7> %casscf
|  8>  mult 5,3
|  9>  bweight 1,1
| 10>  nroots 5,45
| 11>  nel 6
| 12>  norb 5
| 13> end
| 14>
| 15>
| 16> *xyzfile 0 5 pbe.xyz
| 17>
| 18>
| 19>                          ****END OF INPUT****

CARTESIAN COORDINATES (ANGSTROEM)
---------------------------------
  Au     9.386940    5.728801    7.843885
  Au    10.273835    8.212097    7.564707
  Au     7.437424    8.732975   10.362498
  Au     6.833620    4.546686    7.648327
  Au     7.264957    6.119023    9.949129
  Au     5.512945    9.353732    8.284120
  Au     8.340844    8.837399    5.500481
  Au     5.141913    6.804867    7.655593
  Au     6.640568   11.369831    9.865901
  Au     8.289310   10.374708    8.037885
  Au     7.270648    6.412021    5.575452
  Au    10.266582   10.708446    6.297309
  Cr     7.616236    7.670856    7.859150

 Total Charge           Charge          ....    0
 Multiplicity           Mult            ....    5
 Number of Electrons    NEL             ....  252
 Basis Dimension        Dim             ....  525

ORBITAL ENERGIES
----------------

  NO   OCC          E(Eh)            E(eV)
   0   2.0000    -220.498205     -6000.0612
   1   2.0000     -26.341173      -716.7798
   2   2.0000     -22.274855      -606.1296
   3   2.0000     -22.272879      -606.0759
   4   2.0000     -22.261800      -605.7744
   5   2.0000      -4.717755      -128.3766
   6   2.0000      -4.708142      -128.1151
   7   2.0000      -4.708130      -128.1147
   8   2.0000      -4.707525      -128.0983
   9   2.0000      -4.707330      -128.0930
  10   2.0000      -4.707302      -128.0922
  11   2.0000      -4.707170      -128.0886
  12   2.0000      -4.698724      -127.8588
  13   2.0000      -4.698474      -127.8520
  14   2.0000      -4.698350      -127.8486
  15   2.0000      -4.698113      -127.8421
  16   2.0000      -4.694964      -127.7565
  17   2.0000      -3.393568       -92.3437
  18   2.0000      -2.760655       -75.1212
  19   2.0000      -2.753587       -74.9289
  20   2.0000      -2.751228       -74.8647
  21   2.0000      -2.749492       -74.8175
  22   2.0000      -2.748624       -74.7939
  23   2.0000      -2.747727       -74.7694
  24   2.0000      -2.747567       -74.7651
  25   2.0000      -2.746424       -74.7340
  26   2.0000      -2.746012       -74.7228
  27   2.0000      -2.744080       -74.6702
  28   2.0000      -2.743653       -74.6586
  29   2.0000      -2.743409       -74.6519
  30   2.0000      -2.743357       -74.6505
  31   2.0000      -2.741869       -74.6101
  32   2.0000      -2.741363       -74.5963
  33   2.0000      -2.741305       -74.5947
  34   2.0000      -2.741165       -74.5909
  35   2.0000      -2.740852       -74.5824
  36   2.0000      -2.740734       -74.5792
  37   2.0000      -2.739529       -74.5464
  38   2.0000      -2.739377       -74.5422
  39   2.0000      -2.737443       -74.4896
  40   2.0000      -2.736750       -74.4708
  41   2.0000      -2.736180       -74.4552
  42   2.0000      -2.735515       -74.4372
  43   2.0000      -2.734952       -74.4218
  44   2.0000      -2.734776       -74.4170
  45   2.0000      -2.734410       -74.4071
  46   2.0000      -2.732915       -74.3664
  47   2.0000      -2.732307       -74.3498
  48   2.0000      -2.731399       -74.3251
  49   2.0000      -2.730806       -74.3090
  50   2.0000      -2.730176       -74.2919
  51   2.0000      -2.728922       -74.2577
  52   2.0000      -2.728733       -74.2526
  53   2.0000      -2.728331       -74.2417
  54   2.0000      -2.156617       -58.6845
  55   2.0000      -2.156426       -58.6793
  56   2.0000      -2.147146       -58.4268
  57   2.0000      -0.569439       -15.4952
  58   2.0000      -0.556383       -15.1400
  59   2.0000      -0.541845       -14.7444
  60   2.0000      -0.541251       -14.7282
  61   2.0000      -0.534786       -14.5523
  62   2.0000      -0.531230       -14.4555
  63   2.0000      -0.527521       -14.3546
  64   2.0000      -0.526288       -14.3210
  65   2.0000      -0.523073       -14.2335
  66   2.0000      -0.522444       -14.2164
  67   2.0000      -0.521931       -14.2025
  68   2.0000      -0.521782       -14.1984
  69   2.0000      -0.512459       -13.9447
  70   2.0000      -0.510140       -13.8816
  71   2.0000      -0.506174       -13.7737
  72   2.0000      -0.505808       -13.7637
  73   2.0000      -0.505382       -13.7521
  74   2.0000      -0.501436       -13.6448
  75   2.0000      -0.499470       -13.5913
  76   2.0000      -0.499468       -13.5912
  77   2.0000      -0.496650       -13.5145
  78   2.0000      -0.486752       -13.2452
  79   2.0000      -0.486353       -13.2343
  80   2.0000      -0.485944       -13.2232
  81   2.0000      -0.484530       -13.1847
  82   2.0000      -0.482203       -13.1214
  83   2.0000      -0.475690       -12.9442
  84   2.0000      -0.473079       -12.8731
  85   2.0000      -0.472709       -12.8631
  86   2.0000      -0.471158       -12.8208
  87   2.0000      -0.464748       -12.6464
  88   2.0000      -0.463107       -12.6018
  89   2.0000      -0.462710       -12.5910
  90   2.0000      -0.457462       -12.4482
  91   2.0000      -0.456810       -12.4304
  92   2.0000      -0.456666       -12.4265
  93   2.0000      -0.453781       -12.3480
  94   2.0000      -0.451961       -12.2985
  95   2.0000      -0.451670       -12.2906
  96   2.0000      -0.450168       -12.2497
  97   2.0000      -0.449323       -12.2267
  98   2.0000      -0.449086       -12.2202
  99   2.0000      -0.444013       -12.0822
 100   2.0000      -0.441093       -12.0027
 101   2.0000      -0.436148       -11.8682
 102   2.0000      -0.435410       -11.8481
 103   2.0000      -0.434084       -11.8120
 104   2.0000      -0.434003       -11.8098
 105   2.0000      -0.430275       -11.7084
 106   2.0000      -0.426516       -11.6061
 107   2.0000      -0.426359       -11.6018
 108   2.0000      -0.425675       -11.5832
 109   2.0000      -0.424431       -11.5494
 110   2.0000      -0.415070       -11.2946
 111   2.0000      -0.410756       -11.1772
 112   2.0000      -0.410237       -11.1631
 113   2.0000      -0.409225       -11.1356
 114   2.0000      -0.409135       -11.1331
 115   2.0000      -0.399501       -10.8710
 116   2.0000      -0.399103       -10.8601
 117   2.0000      -0.384251       -10.4560
 118   2.0000      -0.359281        -9.7765
 119   2.0000      -0.353836        -9.6284
 120   2.0000      -0.275322        -7.4919
 121   2.0000      -0.249517        -6.7897
 122   2.0000      -0.231996        -6.3129
 123   1.2000      -0.115581        -3.1451
 124   1.2000      -0.082022        -2.2319
 125   1.2000      -0.091699        -2.4952
 126   1.2000      -0.150121        -4.0850
 127   1.2000      -0.075223        -2.0469
 128   0.0000      -0.016031        -0.4362
 129   0.0000      -0.005966        -0.1624
 130   0.0000       0.007613         0.2072
 131   0.0000       0.009457         0.2573
 132   0.0000       0.028074         0.7639

MULLIKEN ATOMIC CHARGES AND SPIN DENSITIES
------------------------------------------
   0 Au:    0.361296    0.043072
   1 Au:    0.335220    0.050696
   2 Au:    0.333284    0.049301
   3 Au:    0.389374    0.006977
   4 Au:    0.353138    0.042246
   5 Au:    0.340179    0.050157
   6 Au:    0.344757    0.051429
   7 Au:    0.354664    0.043208
   8 Au:    0.497938    0.010009
   9 Au:   -0.684303    0.011202
  10 Au:    0.364851    0.044019
  11 Au:    0.498490    0.010008
  12 Cr:   -3.488887    2.587675
Sum of atomic charges       :    0.0000000

LOEWDIN ATOMIC CHARGES AND SPIN DENSITIES
-----------------------------------------
   0 Au:    0.082505    0.061792
   1 Au:    0.066978    0.064803
   2 Au:    0.066677    0.063651
   3 Au:    0.106358    0.015732
   4 Au:    0.083060    0.061016
   5 Au:    0.066681    0.064122
   6 Au:    0.067396    0.065243
   7 Au:    0.082883    0.061788
   8 Au:    0.202943    0.015945
   9 Au:   -0.109259    0.035641
  10 Au:    0.082636    0.062559
  11 Au:    0.202818    0.016100
  12 Cr:   -1.001677    2.411608

  Mayer bond orders larger than 0.100000
B(  0-Au,  1-Au) :   0.3228 B(  0-Au,  3-Au) :   0.1649 B(  0-Au,  4-Au) :   0.1281
B(  0-Au,  5-Au) :   0.1252 B(  0-Au, 12-Cr) :   0.4308 B(  1-Au,  6-Au) :   0.1057
B(  1-Au,  7-Au) :   0.1211 B(  1-Au,  9-Au) :   0.1940 B(  1-Au, 11-Au) :   0.1471
B(  1-Au, 12-Cr) :   0.3728 B(  2-Au,  4-Au) :   0.3281 B(  2-Au,  5-Au) :   0.1039
B(  2-Au,  8-Au) :   0.1471 B(  2-Au,  9-Au) :   0.1936 B(  2-Au, 10-Au) :   0.1235
B(  2-Au, 12-Cr) :   0.3699 B(  3-Au,  4-Au) :   0.1650 B(  3-Au,  7-Au) :   0.1649
B(  3-Au, 10-Au) :   0.1645 B(  3-Au, 12-Cr) :   0.3574 B(  4-Au,  6-Au) :   0.1234
B(  4-Au, 12-Cr) :   0.4347 B(  5-Au,  7-Au) :   0.3228 B(  5-Au,  8-Au) :   0.1482
B(  5-Au,  9-Au) :   0.1925 B(  5-Au, 12-Cr) :   0.3708 B(  6-Au,  9-Au) :   0.1926
B(  6-Au, 10-Au) :   0.3163 B(  6-Au, 11-Au) :   0.1476 B(  6-Au, 12-Cr) :   0.3721
B(  7-Au, 10-Au) :   0.1318 B(  7-Au, 12-Cr) :   0.4366 B(  8-Au,  9-Au) :   0.5005
B(  8-Au, 12-Cr) :   0.1596 B(  9-Au, 11-Au) :   0.5024 B(  9-Au, 12-Cr) :   0.3922
B( 10-Au, 12-Cr) :   0.4316 B( 11-Au, 12-Cr) :   0.1566

FINAL SINGLE POINT ENERGY     -2660.868663052780

DIPOLE MOMENT
-------------
                                X             Y             Z
Electronic contribution:      3.85120      15.68166       0.83637
Nuclear contribution   :     -3.69964     -15.06560      -0.80586
                        -----------------------------------------
Total Dipole Moment    :      0.15156       0.61605       0.03052
                        -----------------------------------------
Magnitude (a.u.)       :      0.63516
Magnitude (Debye)      :      1.61444

Rotational constants in cm-1:     0.001505     0.001183     0.000929
Rotational constants in MHz :    45.132017    35.453009    27.859791

                             ****ORCA TERMINATED NORMALLY****
TOTAL RUN TIME: 0 days 0 hours 20 minutes 49 seconds 104 msec
