                         Program Version 5.0.3 -  RELEASE  -
|  1> !RI-B2PLYP def2-TZVP def2-TZVP/C
|  2> !RIJCOSX VERYSLOWCONV
|  3>
|  4> %scf
|  5>   AutoTRAHIter 200
|  6>   maxiter 400
|  7> end
|  8>
|  9>
| 10> %pal nprocs 6 end
| 11>
| 12> *xyzfile 0 6 pbe.xyz
| 13>
| 14> $new_job
| 15>
| 16> !RI-B2PLYP def2-TZVP def2-TZVP/C
| 17> !RIJCOSX VERYSLOWCONV
| 18>
| 19> %scf
| 20>   AutoTRAHIter 200
| 21>   maxiter 400
| 22> end
| 23>
| 24>
| 25> %pal nprocs 6 end
| 26>
| 27> *xyzfile 0 4 pbe.xyz
| 28>
| 29>
| 30>
| 31>
| 32>
| 33>                          ****END OF INPUT****
 Total Charge           Charge          ....    0
 Multiplicity           Mult            ....    6
 Number of Electrons    NEL             ....  215
MP2 TOTAL ENERGY:    -2506.665573369 Eh
FINAL SINGLE POINT ENERGY     -2506.665573368652

CARTESIAN COORDINATES (ANGSTROEM)
---------------------------------
  Au     8.540415    7.027828    6.612175
  Au    10.232287    7.231159    8.783996
  Au     4.932279    7.367892    9.159027
  Au     7.583595    7.424770    9.443698
  Au     8.807187    4.895024    8.721297
  Au     5.224996    3.909529    6.112766
  Au     4.025880    5.528157    4.258677
  Au     6.477461    6.462413    5.112889
  Au     4.001826    6.434493    6.840730
  Au     7.000768    3.098103    7.930429
  Mn     6.441947    5.702552    7.715984

 Multiplicity           Mult            ....    4
 Number of Electrons    NEL             ....  215
 Basis Dimension        Dim             ....  445

ORBITAL ENERGIES
----------------
                 SPIN UP ORBITALS
  NO   OCC          E(Eh)            E(eV)
   0   1.0000    -237.616749     -6465.8804
   1   1.0000     -28.121625      -765.2283
   2   1.0000     -24.039689      -654.1532
   3   1.0000     -24.038894      -654.1316
   4   1.0000     -24.038880      -654.1312
   5   1.0000      -4.396450      -119.6335
   6   1.0000      -4.396401      -119.6321
   7   1.0000      -4.396327      -119.6301
   8   1.0000      -4.396306      -119.6296
   9   1.0000      -4.391946      -119.5109
  10   1.0000      -4.391924      -119.5103
  11   1.0000      -4.391723      -119.5049
  12   1.0000      -4.391615      -119.5019
  13   1.0000      -4.388976      -119.4301
  14   1.0000      -4.388543      -119.4183
  15   1.0000      -3.599834       -97.9565
  16   1.0000      -2.520061       -68.5744
  17   1.0000      -2.519447       -68.5576
  18   1.0000      -2.519136       -68.5492
  19   1.0000      -2.518628       -68.5353
  20   1.0000      -2.516899       -68.4883
  21   1.0000      -2.516869       -68.4875
  22   1.0000      -2.514686       -68.4281
  23   1.0000      -2.514223       -68.4155
  24   1.0000      -2.514086       -68.4117
  25   1.0000      -2.511761       -68.3485
  26   1.0000      -2.511747       -68.3481
  27   1.0000      -2.511261       -68.3349
  28   1.0000      -2.510060       -68.3022
  29   1.0000      -2.509351       -68.2829
  30   1.0000      -2.509082       -68.2756
  31   1.0000      -2.508843       -68.2691
  32   1.0000      -2.508697       -68.2651
  33   1.0000      -2.508182       -68.2511
  34   1.0000      -2.507537       -68.2336
  35   1.0000      -2.507433       -68.2307
  36   1.0000      -2.506863       -68.2152
  37   1.0000      -2.506653       -68.2095
  38   1.0000      -2.506347       -68.2012
  39   1.0000      -2.505948       -68.1903
  40   1.0000      -2.505933       -68.1899
  41   1.0000      -2.503857       -68.1334
  42   1.0000      -2.503749       -68.1305
  43   1.0000      -2.502818       -68.1051
  44   1.0000      -2.500643       -68.0460
  45   1.0000      -2.499928       -68.0265
  46   1.0000      -2.401593       -65.3507
  47   1.0000      -2.400674       -65.3256
  48   1.0000      -2.400601       -65.3237
  49   1.0000      -0.512194       -13.9375
  50   1.0000      -0.506587       -13.7849
  51   1.0000      -0.504877       -13.7384
  52   1.0000      -0.501021       -13.6335
  53   1.0000      -0.496443       -13.5089
  54   1.0000      -0.475140       -12.9292
  55   1.0000      -0.471335       -12.8257
  56   1.0000      -0.463439       -12.6108
  57   1.0000      -0.455454       -12.3935
  58   1.0000      -0.449448       -12.2301
  59   1.0000      -0.449341       -12.2272
  60   1.0000      -0.443527       -12.0690
  61   1.0000      -0.437812       -11.9135
  62   1.0000      -0.434342       -11.8191
  63   1.0000      -0.434167       -11.8143
  64   1.0000      -0.428398       -11.6573
  65   1.0000      -0.427836       -11.6420
  66   1.0000      -0.423546       -11.5253
  67   1.0000      -0.421584       -11.4719
  68   1.0000      -0.416555       -11.3350
  69   1.0000      -0.406201       -11.0533
  70   1.0000      -0.404569       -11.0089
  71   1.0000      -0.398272       -10.8375
  72   1.0000      -0.396906       -10.8004
  73   1.0000      -0.392935       -10.6923
  74   1.0000      -0.391919       -10.6646
  75   1.0000      -0.387619       -10.5476
  76   1.0000      -0.385778       -10.4976
  77   1.0000      -0.385050       -10.4778
  78   1.0000      -0.384829       -10.4717
  79   1.0000      -0.384451       -10.4614
  80   1.0000      -0.378217       -10.2918
  81   1.0000      -0.377384       -10.2691
  82   1.0000      -0.377082       -10.2609
  83   1.0000      -0.376757       -10.2521
  84   1.0000      -0.370215       -10.0741
  85   1.0000      -0.367607       -10.0031
  86   1.0000      -0.367468        -9.9993
  87   1.0000      -0.366069        -9.9612
  88   1.0000      -0.362535        -9.8651
  89   1.0000      -0.362211        -9.8563
  90   1.0000      -0.361054        -9.8248
  91   1.0000      -0.360659        -9.8140
  92   1.0000      -0.360450        -9.8084
  93   1.0000      -0.358153        -9.7458
  94   1.0000      -0.358069        -9.7436
  95   1.0000      -0.355083        -9.6623
  96   1.0000      -0.349828        -9.5193
  97   1.0000      -0.348144        -9.4735
  98   1.0000      -0.345971        -9.4143
  99   1.0000      -0.343930        -9.3588
 100   1.0000      -0.341194        -9.2844
 101   1.0000      -0.333354        -9.0710
 102   1.0000      -0.329280        -8.9602
 103   1.0000      -0.325734        -8.8637
 104   1.0000      -0.318171        -8.6579
 105   1.0000      -0.313531        -8.5316
 106   1.0000      -0.277386        -7.5481
 107   1.0000      -0.271462        -7.3868
 108   1.0000      -0.235918        -6.4197
 109   0.0000      -0.107427        -2.9232
 110   0.0000      -0.102456        -2.7880
 111   0.0000      -0.070645        -1.9223
 112   0.0000      -0.063032        -1.7152
 113   0.0000      -0.052490        -1.4283

                 SPIN DOWN ORBITALS
  NO   OCC          E(Eh)            E(eV)
   0   1.0000    -237.614649     -6465.8233
   1   1.0000     -28.020406      -762.4740
   2   1.0000     -23.946501      -651.6174
   3   1.0000     -23.946120      -651.6071
   4   1.0000     -23.946089      -651.6062
   5   1.0000      -4.396864      -119.6448
   6   1.0000      -4.396824      -119.6437
   7   1.0000      -4.396742      -119.6414
   8   1.0000      -4.396728      -119.6411
   9   1.0000      -4.393462      -119.5522
  10   1.0000      -4.393447      -119.5518
  11   1.0000      -4.392011      -119.5127
  12   1.0000      -4.391902      -119.5097
  13   1.0000      -4.388334      -119.4126
  14   1.0000      -4.387905      -119.4010
  15   1.0000      -3.315086       -90.2081
  16   1.0000      -2.520141       -68.5765
  17   1.0000      -2.519253       -68.5524
  18   1.0000      -2.518775       -68.5393
  19   1.0000      -2.517635       -68.5083
  20   1.0000      -2.515767       -68.4575
  21   1.0000      -2.515668       -68.4548
  22   1.0000      -2.514050       -68.4108
  23   1.0000      -2.513392       -68.3929
  24   1.0000      -2.513333       -68.3913
  25   1.0000      -2.513071       -68.3841
  26   1.0000      -2.511842       -68.3507
  27   1.0000      -2.511042       -68.3289
  28   1.0000      -2.510039       -68.3016
  29   1.0000      -2.509428       -68.2850
  30   1.0000      -2.509307       -68.2817
  31   1.0000      -2.509097       -68.2760
  32   1.0000      -2.509030       -68.2742
  33   1.0000      -2.508532       -68.2606
  34   1.0000      -2.508256       -68.2531
  35   1.0000      -2.507883       -68.2430
  36   1.0000      -2.507771       -68.2399
  37   1.0000      -2.507690       -68.2377
  38   1.0000      -2.507147       -68.2229
  39   1.0000      -2.505175       -68.1693
  40   1.0000      -2.505044       -68.1657
  41   1.0000      -2.502910       -68.1076
  42   1.0000      -2.502805       -68.1048
  43   1.0000      -2.502254       -68.0898
  44   1.0000      -2.500212       -68.0342
  45   1.0000      -2.499536       -68.0158
  46   1.0000      -2.077059       -56.5196
  47   1.0000      -2.074513       -56.4504
  48   1.0000      -2.073678       -56.4276
  49   1.0000      -0.484188       -13.1754
  50   1.0000      -0.471478       -12.8296
  51   1.0000      -0.467945       -12.7334
  52   1.0000      -0.459829       -12.5126
  53   1.0000      -0.457377       -12.4459
  54   1.0000      -0.456915       -12.4333
  55   1.0000      -0.455906       -12.4058
  56   1.0000      -0.452285       -12.3073
  57   1.0000      -0.437285       -11.8991
  58   1.0000      -0.434734       -11.8297
  59   1.0000      -0.434655       -11.8276
  60   1.0000      -0.429758       -11.6943
  61   1.0000      -0.428751       -11.6669
  62   1.0000      -0.422008       -11.4834
  63   1.0000      -0.421098       -11.4587
  64   1.0000      -0.414582       -11.2814
  65   1.0000      -0.412820       -11.2334
  66   1.0000      -0.412775       -11.2322
  67   1.0000      -0.409095       -11.1321
  68   1.0000      -0.407540       -11.0897
  69   1.0000      -0.405236       -11.0270
  70   1.0000      -0.398207       -10.8358
  71   1.0000      -0.390295       -10.6205
  72   1.0000      -0.389862       -10.6087
  73   1.0000      -0.388336       -10.5672
  74   1.0000      -0.388330       -10.5670
  75   1.0000      -0.388106       -10.5609
  76   1.0000      -0.380950       -10.3662
  77   1.0000      -0.380620       -10.3572
  78   1.0000      -0.377272       -10.2661
  79   1.0000      -0.374203       -10.1826
  80   1.0000      -0.373606       -10.1663
  81   1.0000      -0.370182       -10.0732
  82   1.0000      -0.369677       -10.0594
  83   1.0000      -0.369203       -10.0465
  84   1.0000      -0.366061        -9.9610
  85   1.0000      -0.363614        -9.8945
  86   1.0000      -0.362933        -9.8759
  87   1.0000      -0.362391        -9.8612
  88   1.0000      -0.361525        -9.8376
  89   1.0000      -0.360632        -9.8133
  90   1.0000      -0.357252        -9.7213
  91   1.0000      -0.352050        -9.5798
  92   1.0000      -0.351349        -9.5607
  93   1.0000      -0.348162        -9.4740
  94   1.0000      -0.345125        -9.3913
  95   1.0000      -0.344743        -9.3809
  96   1.0000      -0.336579        -9.1588
  97   1.0000      -0.335350        -9.1253
  98   1.0000      -0.333520        -9.0755
  99   1.0000      -0.324960        -8.8426
 100   1.0000      -0.317071        -8.6279
 101   1.0000      -0.296413        -8.0658
 102   1.0000      -0.288815        -7.8591
 103   1.0000      -0.246140        -6.6978
 104   1.0000      -0.216456        -5.8901
 105   1.0000      -0.205462        -5.5909
 106   0.0000      -0.082430        -2.2430
 107   0.0000      -0.068476        -1.8633
 108   0.0000      -0.066131        -1.7995
 109   0.0000      -0.029767        -0.8100
 110   0.0000      -0.025727        -0.7001

MULLIKEN ATOMIC CHARGES AND SPIN POPULATIONS
--------------------------------------------
   0 Au:   -0.046871   -0.041598
   1 Au:    0.368436   -0.200667
   2 Au:    0.222938    0.012609
   3 Au:   -0.027167   -0.310418
   4 Au:   -0.026193   -0.310479
   5 Au:   -0.024811   -0.309998
   6 Au:    0.368802   -0.202801
   7 Au:   -0.052212   -0.039835
   8 Au:   -0.026045   -0.309662
   9 Au:    0.221553    0.012803
  10 Mn:   -0.978432    4.700046
Sum of atomic charges         :    0.0000000

LOEWDIN ATOMIC CHARGES AND SPIN POPULATIONS
-------------------------------------------
   0 Au:   -0.041901   -0.050143
   1 Au:    0.117714   -0.166422
   2 Au:    0.090987   -0.164838
   3 Au:   -0.056587   -0.195110
   4 Au:   -0.056857   -0.195304
   5 Au:   -0.056634   -0.195567
   6 Au:    0.117447   -0.167608
   7 Au:   -0.041870   -0.049249
   8 Au:   -0.056490   -0.195294
   9 Au:    0.090655   -0.164704
  10 Mn:   -0.106463    4.544240

  Mayer bond orders larger than 0.100000
B(  0-Au,  1-Au) :   0.3048 B(  0-Au,  3-Au) :   0.1239 B(  0-Au,  4-Au) :   0.1240
B(  0-Au,  7-Au) :   0.6349 B(  0-Au, 10-Mn) :   0.4632 B(  1-Au,  3-Au) :   0.3151
B(  1-Au,  4-Au) :   0.3144 B(  2-Au,  3-Au) :   0.3662 B(  2-Au,  8-Au) :   0.3656
B(  2-Au, 10-Mn) :   0.5226 B(  3-Au,  4-Au) :   0.1675 B(  3-Au, 10-Mn) :   0.4416
B(  4-Au,  9-Au) :   0.3661 B(  4-Au, 10-Mn) :   0.4408 B(  5-Au,  6-Au) :   0.3134
B(  5-Au,  7-Au) :   0.1239 B(  5-Au,  8-Au) :   0.1683 B(  5-Au,  9-Au) :   0.3654
B(  5-Au, 10-Mn) :   0.4400 B(  6-Au,  7-Au) :   0.3071 B(  6-Au,  8-Au) :   0.3141
B(  7-Au,  8-Au) :   0.1233 B(  7-Au, 10-Mn) :   0.4672 B(  8-Au, 10-Mn) :   0.4407
B(  9-Au, 10-Mn) :   0.5230

MP2 TOTAL ENERGY:    -2506.669988946 Eh
FINAL SINGLE POINT ENERGY     -2506.669988946278

DIPOLE MOMENT
-------------
                                X             Y             Z
Electronic contribution:      8.74167       8.55123     -15.19503
Nuclear contribution   :     -8.71847      -8.52515      15.15415
                        -----------------------------------------
Total Dipole Moment    :      0.02320       0.02608      -0.04087
                        -----------------------------------------
Magnitude (a.u.)       :      0.05375
Magnitude (Debye)      :      0.13663

Rotational constants in cm-1:     0.002381     0.001214     0.001135
Rotational constants in MHz :    71.382518    36.403831    34.039746

                             ****ORCA TERMINATED NORMALLY****
TOTAL RUN TIME: 0 days 0 hours 15 minutes 14 seconds 283 msec
