                         Program Version 5.0.3 -  RELEASE  -
|  1> !PBE def2-TZVP VERYSLOWCONV
|  2> !KDIIS
|  3>
|  4> %scf
|  5>   AutoTRAHIter 200
|  6>   maxiter 400
|  7> end
|  8>
|  9>
| 10> %pal nprocs 6 end
| 11>
| 12> *xyzfile 0 6 pbe.xyz
| 13>
| 14> $new_job
| 15>
| 16> !PBE def2-TZVP VERYSLOWCONV
| 17> !KDIIS
| 18>
| 19> %scf
| 20>   AutoTRAHIter 200
| 21>   maxiter 400
| 22> end
| 23>
| 24>
| 25> %pal nprocs 6 end
| 26>
| 27> *xyzfile 0 4 pbe.xyz
| 28>
| 29>
| 30>
| 31>
| 32>
| 33>                          ****END OF INPUT****
 Total Charge           Charge          ....    0
 Multiplicity           Mult            ....    6
 Number of Electrons    NEL             ....  215
FINAL SINGLE POINT ENERGY     -2509.031686974347

CARTESIAN COORDINATES (ANGSTROEM)
---------------------------------
  Au     8.540415    7.027828    6.612175
  Au    10.232287    7.231159    8.783996
  Au     4.932279    7.367892    9.159027
  Au     7.583595    7.424770    9.443698
  Au     8.807187    4.895024    8.721297
  Au     5.224996    3.909529    6.112766
  Au     4.025880    5.528157    4.258677
  Au     6.477461    6.462413    5.112889
  Au     4.001826    6.434493    6.840730
  Au     7.000768    3.098103    7.930429
  Mn     6.441947    5.702552    7.715984

 Multiplicity           Mult            ....    4
 Number of Electrons    NEL             ....  215
 Basis Dimension        Dim             ....  445

ORBITAL ENERGIES
----------------
                 SPIN UP ORBITALS
  NO   OCC          E(Eh)            E(eV)
   0   1.0000    -234.198414     -6372.8628
   1   1.0000     -26.895602      -731.8665
   2   1.0000     -23.044806      -627.0811
   3   1.0000     -23.044005      -627.0593
   4   1.0000     -23.043196      -627.0372
   5   1.0000      -4.024382      -109.5090
   6   1.0000      -4.024364      -109.5085
   7   1.0000      -4.024305      -109.5069
   8   1.0000      -4.024269      -109.5059
   9   1.0000      -4.021207      -109.4226
  10   1.0000      -4.021198      -109.4224
  11   1.0000      -4.019781      -109.3838
  12   1.0000      -4.019646      -109.3801
  13   1.0000      -4.019396      -109.3733
  14   1.0000      -4.019059      -109.3642
  15   1.0000      -3.104370       -84.4742
  16   1.0000      -2.244101       -61.0651
  17   1.0000      -2.243660       -61.0531
  18   1.0000      -2.243254       -61.0420
  19   1.0000      -2.242725       -61.0277
  20   1.0000      -2.241268       -60.9880
  21   1.0000      -2.239905       -60.9509
  22   1.0000      -2.239759       -60.9469
  23   1.0000      -2.237960       -60.8980
  24   1.0000      -2.237888       -60.8960
  25   1.0000      -2.237679       -60.8903
  26   1.0000      -2.237101       -60.8746
  27   1.0000      -2.236091       -60.8471
  28   1.0000      -2.235820       -60.8398
  29   1.0000      -2.234747       -60.8106
  30   1.0000      -2.234035       -60.7912
  31   1.0000      -2.233737       -60.7831
  32   1.0000      -2.233378       -60.7733
  33   1.0000      -2.232816       -60.7580
  34   1.0000      -2.231767       -60.7295
  35   1.0000      -2.231723       -60.7283
  36   1.0000      -2.231671       -60.7269
  37   1.0000      -2.231155       -60.7128
  38   1.0000      -2.230791       -60.7029
  39   1.0000      -2.230713       -60.7008
  40   1.0000      -2.230350       -60.6909
  41   1.0000      -2.230303       -60.6896
  42   1.0000      -2.225683       -60.5639
  43   1.0000      -2.225543       -60.5601
  44   1.0000      -2.225004       -60.5454
  45   1.0000      -2.224404       -60.5291
  46   1.0000      -2.008862       -54.6639
  47   1.0000      -2.006888       -54.6102
  48   1.0000      -2.004690       -54.5504
  49   1.0000      -0.406585       -11.0637
  50   1.0000      -0.383989       -10.4489
  51   1.0000      -0.373504       -10.1635
  52   1.0000      -0.366354        -9.9690
  53   1.0000      -0.360936        -9.8216
  54   1.0000      -0.360106        -9.7990
  55   1.0000      -0.359418        -9.7803
  56   1.0000      -0.354338        -9.6420
  57   1.0000      -0.338001        -9.1975
  58   1.0000      -0.333427        -9.0730
  59   1.0000      -0.332629        -9.0513
  60   1.0000      -0.331249        -9.0137
  61   1.0000      -0.330236        -8.9862
  62   1.0000      -0.327151        -8.9022
  63   1.0000      -0.321746        -8.7552
  64   1.0000      -0.321540        -8.7495
  65   1.0000      -0.319479        -8.6935
  66   1.0000      -0.318965        -8.6795
  67   1.0000      -0.315916        -8.5965
  68   1.0000      -0.308399        -8.3920
  69   1.0000      -0.303364        -8.2550
  70   1.0000      -0.301788        -8.2121
  71   1.0000      -0.296359        -8.0643
  72   1.0000      -0.293366        -7.9829
  73   1.0000      -0.290369        -7.9014
  74   1.0000      -0.288690        -7.8556
  75   1.0000      -0.287228        -7.8159
  76   1.0000      -0.285943        -7.7809
  77   1.0000      -0.284259        -7.7351
  78   1.0000      -0.280901        -7.6437
  79   1.0000      -0.279918        -7.6169
  80   1.0000      -0.277752        -7.5580
  81   1.0000      -0.276985        -7.5372
  82   1.0000      -0.274036        -7.4569
  83   1.0000      -0.273492        -7.4421
  84   1.0000      -0.273087        -7.4311
  85   1.0000      -0.269217        -7.3258
  86   1.0000      -0.268684        -7.3113
  87   1.0000      -0.266444        -7.2503
  88   1.0000      -0.264621        -7.2007
  89   1.0000      -0.264268        -7.1911
  90   1.0000      -0.260258        -7.0820
  91   1.0000      -0.259346        -7.0572
  92   1.0000      -0.258190        -7.0257
  93   1.0000      -0.255120        -6.9422
  94   1.0000      -0.254969        -6.9381
  95   1.0000      -0.252676        -6.8757
  96   1.0000      -0.252552        -6.8723
  97   1.0000      -0.250953        -6.8288
  98   1.0000      -0.249809        -6.7976
  99   1.0000      -0.247631        -6.7384
 100   1.0000      -0.241179        -6.5628
 101   1.0000      -0.240675        -6.5491
 102   1.0000      -0.238770        -6.4973
 103   1.0000      -0.237910        -6.4739
 104   1.0000      -0.232349        -6.3225
 105   1.0000      -0.231863        -6.3093
 106   1.0000      -0.230589        -6.2746
 107   1.0000      -0.227431        -6.1887
 108   1.0000      -0.208375        -5.6702
 109   0.0000      -0.175466        -4.7747
 110   0.0000      -0.171147        -4.6571
 111   0.0000      -0.136740        -3.7209
 112   0.0000      -0.129438        -3.5222
 113   0.0000      -0.123102        -3.3498

                 SPIN DOWN ORBITALS
  NO   OCC          E(Eh)            E(eV)
   0   1.0000    -234.197679     -6372.8428
   1   1.0000     -26.829683      -730.0728
   2   1.0000     -22.994265      -625.7058
   3   1.0000     -22.994249      -625.7053
   4   1.0000     -22.993294      -625.6793
   5   1.0000      -4.024108      -109.5015
   6   1.0000      -4.024095      -109.5012
   7   1.0000      -4.024029      -109.4994
   8   1.0000      -4.024003      -109.4987
   9   1.0000      -4.021970      -109.4434
  10   1.0000      -4.021963      -109.4432
  11   1.0000      -4.019864      -109.3861
  12   1.0000      -4.019729      -109.3824
  13   1.0000      -4.018818      -109.3576
  14   1.0000      -4.018485      -109.3485
  15   1.0000      -2.942489       -80.0692
  16   1.0000      -2.244115       -61.0655
  17   1.0000      -2.243592       -61.0512
  18   1.0000      -2.243075       -61.0372
  19   1.0000      -2.242317       -61.0165
  20   1.0000      -2.240839       -60.9763
  21   1.0000      -2.239480       -60.9393
  22   1.0000      -2.239159       -60.9306
  23   1.0000      -2.238128       -60.9026
  24   1.0000      -2.237518       -60.8860
  25   1.0000      -2.237356       -60.8816
  26   1.0000      -2.237331       -60.8809
  27   1.0000      -2.235750       -60.8379
  28   1.0000      -2.235560       -60.8327
  29   1.0000      -2.234877       -60.8141
  30   1.0000      -2.234783       -60.8115
  31   1.0000      -2.234169       -60.7948
  32   1.0000      -2.232927       -60.7610
  33   1.0000      -2.232445       -60.7479
  34   1.0000      -2.232362       -60.7457
  35   1.0000      -2.232344       -60.7452
  36   1.0000      -2.232056       -60.7373
  37   1.0000      -2.231377       -60.7188
  38   1.0000      -2.230673       -60.6997
  39   1.0000      -2.230553       -60.6964
  40   1.0000      -2.230336       -60.6905
  41   1.0000      -2.230296       -60.6894
  42   1.0000      -2.225205       -60.5509
  43   1.0000      -2.225067       -60.5472
  44   1.0000      -2.224679       -60.5366
  45   1.0000      -2.224078       -60.5203
  46   1.0000      -1.849806       -50.3358
  47   1.0000      -1.848483       -50.2998
  48   1.0000      -1.845365       -50.2149
  49   1.0000      -0.403750       -10.9866
  50   1.0000      -0.385357       -10.4861
  51   1.0000      -0.367567       -10.0020
  52   1.0000      -0.365110        -9.9351
  53   1.0000      -0.363202        -9.8832
  54   1.0000      -0.356468        -9.7000
  55   1.0000      -0.353492        -9.6190
  56   1.0000      -0.352749        -9.5988
  57   1.0000      -0.333232        -9.0677
  58   1.0000      -0.331896        -9.0314
  59   1.0000      -0.330817        -9.0020
  60   1.0000      -0.330006        -8.9799
  61   1.0000      -0.326495        -8.8844
  62   1.0000      -0.320112        -8.7107
  63   1.0000      -0.318396        -8.6640
  64   1.0000      -0.313213        -8.5229
  65   1.0000      -0.312555        -8.5051
  66   1.0000      -0.312303        -8.4982
  67   1.0000      -0.309862        -8.4318
  68   1.0000      -0.309126        -8.4117
  69   1.0000      -0.303144        -8.2490
  70   1.0000      -0.297337        -8.0909
  71   1.0000      -0.295310        -8.0358
  72   1.0000      -0.295052        -8.0288
  73   1.0000      -0.291956        -7.9445
  74   1.0000      -0.290016        -7.8917
  75   1.0000      -0.288971        -7.8633
  76   1.0000      -0.286137        -7.7862
  77   1.0000      -0.283137        -7.7045
  78   1.0000      -0.281191        -7.6516
  79   1.0000      -0.280045        -7.6204
  80   1.0000      -0.277733        -7.5575
  81   1.0000      -0.275703        -7.5023
  82   1.0000      -0.272894        -7.4258
  83   1.0000      -0.271789        -7.3958
  84   1.0000      -0.269171        -7.3245
  85   1.0000      -0.268623        -7.3096
  86   1.0000      -0.267742        -7.2856
  87   1.0000      -0.267704        -7.2846
  88   1.0000      -0.264763        -7.2046
  89   1.0000      -0.263855        -7.1799
  90   1.0000      -0.262128        -7.1329
  91   1.0000      -0.259874        -7.0715
  92   1.0000      -0.257708        -7.0126
  93   1.0000      -0.255572        -6.9545
  94   1.0000      -0.254621        -6.9286
  95   1.0000      -0.251312        -6.8386
  96   1.0000      -0.250423        -6.8144
  97   1.0000      -0.249276        -6.7832
  98   1.0000      -0.244687        -6.6583
  99   1.0000      -0.242453        -6.5975
 100   1.0000      -0.237442        -6.4611
 101   1.0000      -0.236598        -6.4382
 102   1.0000      -0.233912        -6.3651
 103   1.0000      -0.219765        -5.9801
 104   1.0000      -0.193915        -5.2767
 105   1.0000      -0.186147        -5.0653
 106   0.0000      -0.147536        -4.0147
 107   0.0000      -0.140253        -3.8165
 108   0.0000      -0.139050        -3.7838
 109   0.0000      -0.127487        -3.4691
 110   0.0000      -0.124027        -3.3749

MULLIKEN ATOMIC CHARGES AND SPIN POPULATIONS
--------------------------------------------
   0 Au:   -0.021400   -0.018134
   1 Au:    0.404721   -0.118276
   2 Au:    0.225578   -0.024807
   3 Au:    0.022952   -0.219310
   4 Au:    0.023928   -0.219365
   5 Au:    0.025481   -0.219606
   6 Au:    0.404585   -0.120242
   7 Au:   -0.025636   -0.016140
   8 Au:    0.024235   -0.218954
   9 Au:    0.224378   -0.024864
  10 Mn:   -1.308823    4.199698
Sum of atomic charges         :   -0.0000000

LOEWDIN ATOMIC CHARGES AND SPIN POPULATIONS
-------------------------------------------
   0 Au:   -0.002037   -0.021195
   1 Au:    0.092848   -0.133942
   2 Au:    0.115406   -0.121776
   3 Au:   -0.021758   -0.133449
   4 Au:   -0.022027   -0.133711
   5 Au:   -0.021979   -0.134297
   6 Au:    0.092609   -0.135167
   7 Au:   -0.001777   -0.019832
   8 Au:   -0.021694   -0.133670
   9 Au:    0.115097   -0.121811
  10 Mn:   -0.324688    4.088848

  Mayer bond orders larger than 0.100000
B(  0-Au,  1-Au) :   0.3375 B(  0-Au,  3-Au) :   0.1488 B(  0-Au,  4-Au) :   0.1494
B(  0-Au,  7-Au) :   0.6385 B(  0-Au, 10-Mn) :   0.5434 B(  1-Au,  3-Au) :   0.3407
B(  1-Au,  4-Au) :   0.3400 B(  2-Au,  3-Au) :   0.4128 B(  2-Au,  8-Au) :   0.4120
B(  2-Au, 10-Mn) :   0.5458 B(  3-Au,  4-Au) :   0.1821 B(  3-Au, 10-Mn) :   0.5324
B(  4-Au,  9-Au) :   0.4125 B(  4-Au, 10-Mn) :   0.5316 B(  5-Au,  6-Au) :   0.3390
B(  5-Au,  7-Au) :   0.1487 B(  5-Au,  8-Au) :   0.1832 B(  5-Au,  9-Au) :   0.4117
B(  5-Au, 10-Mn) :   0.5301 B(  6-Au,  7-Au) :   0.3393 B(  6-Au,  8-Au) :   0.3400
B(  7-Au,  8-Au) :   0.1475 B(  7-Au, 10-Mn) :   0.5481 B(  8-Au, 10-Mn) :   0.5315
B(  9-Au, 10-Mn) :   0.5463

FINAL SINGLE POINT ENERGY     -2509.037003699374

DIPOLE MOMENT
-------------
                                X             Y             Z
Electronic contribution:      8.72936       8.53832     -15.17245
Nuclear contribution   :     -8.71847      -8.52515      15.15415
                        -----------------------------------------
Total Dipole Moment    :      0.01089       0.01317      -0.01829
                        -----------------------------------------
Magnitude (a.u.)       :      0.02504
Magnitude (Debye)      :      0.06364

Rotational constants in cm-1:     0.002381     0.001214     0.001135
Rotational constants in MHz :    71.382518    36.403831    34.039746

                             ****ORCA TERMINATED NORMALLY****
TOTAL RUN TIME: 0 days 0 hours 2 minutes 43 seconds 586 msec
