                         Program Version 5.0.3 -  RELEASE  -
|  1> !R2SCAN def2-TZVP VERYSLOWCONV
|  2> !KDIIS
|  3> %scf
|  4>   AutoTRAHIter 200
|  5>   maxiter 400
|  6> end
|  7>
|  8> %pal nprocs 6 end
|  9>
| 10> *xyzfile 0 6 pbe.xyz
| 11>
| 12> $new_job
| 13>
| 14> !R2SCAN def2-TZVP VERYSLOWCONV
| 15> !KDIIS
| 16> %scf
| 17>   AutoTRAHIter 200
| 18>   maxiter 400
| 19> end
| 20>
| 21>
| 22> %pal nprocs 6 end
| 23>
| 24> *xyzfile 0 4 pbe.xyz
| 25>
| 26>
| 27>
| 28>
| 29>
| 30>                          ****END OF INPUT****
 Total Charge           Charge          ....    0
 Multiplicity           Mult            ....    6
 Number of Electrons    NEL             ....  215
FINAL SINGLE POINT ENERGY     -2509.437652051423

CARTESIAN COORDINATES (ANGSTROEM)
---------------------------------
  Au     8.540415    7.027828    6.612175
  Au    10.232287    7.231159    8.783996
  Au     4.932279    7.367892    9.159027
  Au     7.583595    7.424770    9.443698
  Au     8.807187    4.895024    8.721297
  Au     5.224996    3.909529    6.112766
  Au     4.025880    5.528157    4.258677
  Au     6.477461    6.462413    5.112889
  Au     4.001826    6.434493    6.840730
  Au     7.000768    3.098103    7.930429
  Mn     6.441947    5.702552    7.715984

 Multiplicity           Mult            ....    4
 Number of Electrons    NEL             ....  215
 Basis Dimension        Dim             ....  445

ORBITAL ENERGIES
----------------
                 SPIN UP ORBITALS
  NO   OCC          E(Eh)            E(eV)
   0   1.0000    -235.040106     -6395.7664
   1   1.0000     -27.221333      -740.7301
   2   1.0000     -23.268852      -633.1776
   3   1.0000     -23.267801      -633.1490
   4   1.0000     -23.267269      -633.1346
   5   1.0000      -4.115305      -111.9832
   6   1.0000      -4.115285      -111.9826
   7   1.0000      -4.115218      -111.9808
   8   1.0000      -4.115179      -111.9797
   9   1.0000      -4.112050      -111.8946
  10   1.0000      -4.112038      -111.8942
  11   1.0000      -4.111499      -111.8796
  12   1.0000      -4.111356      -111.8757
  13   1.0000      -4.109753      -111.8321
  14   1.0000      -4.109374      -111.8218
  15   1.0000      -3.242990       -88.2463
  16   1.0000      -2.307895       -62.8010
  17   1.0000      -2.307376       -62.7869
  18   1.0000      -2.307033       -62.7776
  19   1.0000      -2.306453       -62.7618
  20   1.0000      -2.304559       -62.7102
  21   1.0000      -2.303745       -62.6881
  22   1.0000      -2.303508       -62.6816
  23   1.0000      -2.301715       -62.6329
  24   1.0000      -2.301615       -62.6301
  25   1.0000      -2.301204       -62.6189
  26   1.0000      -2.300820       -62.6085
  27   1.0000      -2.300233       -62.5925
  28   1.0000      -2.299644       -62.5765
  29   1.0000      -2.298020       -62.5323
  30   1.0000      -2.297922       -62.5296
  31   1.0000      -2.297283       -62.5122
  32   1.0000      -2.296510       -62.4912
  33   1.0000      -2.296071       -62.4793
  34   1.0000      -2.295329       -62.4591
  35   1.0000      -2.295233       -62.4565
  36   1.0000      -2.295216       -62.4560
  37   1.0000      -2.294887       -62.4470
  38   1.0000      -2.294858       -62.4463
  39   1.0000      -2.294447       -62.4351
  40   1.0000      -2.294398       -62.4337
  41   1.0000      -2.294104       -62.4257
  42   1.0000      -2.290435       -62.3259
  43   1.0000      -2.290285       -62.3218
  44   1.0000      -2.288456       -62.2721
  45   1.0000      -2.287804       -62.2543
  46   1.0000      -2.101351       -57.1807
  47   1.0000      -2.099112       -57.1197
  48   1.0000      -2.097592       -57.0784
  49   1.0000      -0.412360       -11.2209
  50   1.0000      -0.389413       -10.5965
  51   1.0000      -0.383023       -10.4226
  52   1.0000      -0.375169       -10.2089
  53   1.0000      -0.371920       -10.1205
  54   1.0000      -0.371462       -10.1080
  55   1.0000      -0.368939       -10.0393
  56   1.0000      -0.364937        -9.9304
  57   1.0000      -0.350440        -9.5360
  58   1.0000      -0.344848        -9.3838
  59   1.0000      -0.341647        -9.2967
  60   1.0000      -0.341262        -9.2862
  61   1.0000      -0.341027        -9.2798
  62   1.0000      -0.340026        -9.2526
  63   1.0000      -0.333682        -9.0799
  64   1.0000      -0.332136        -9.0379
  65   1.0000      -0.329417        -8.9639
  66   1.0000      -0.328336        -8.9345
  67   1.0000      -0.326054        -8.8724
  68   1.0000      -0.316897        -8.6232
  69   1.0000      -0.315413        -8.5828
  70   1.0000      -0.311112        -8.4658
  71   1.0000      -0.305478        -8.3125
  72   1.0000      -0.301793        -8.2122
  73   1.0000      -0.298395        -8.1197
  74   1.0000      -0.297227        -8.0880
  75   1.0000      -0.295415        -8.0387
  76   1.0000      -0.294853        -8.0234
  77   1.0000      -0.292006        -7.9459
  78   1.0000      -0.290380        -7.9016
  79   1.0000      -0.288730        -7.8567
  80   1.0000      -0.287360        -7.8194
  81   1.0000      -0.285823        -7.7776
  82   1.0000      -0.283991        -7.7278
  83   1.0000      -0.283376        -7.7110
  84   1.0000      -0.282945        -7.6993
  85   1.0000      -0.277983        -7.5643
  86   1.0000      -0.277643        -7.5550
  87   1.0000      -0.274851        -7.4791
  88   1.0000      -0.273762        -7.4494
  89   1.0000      -0.273366        -7.4387
  90   1.0000      -0.267722        -7.2851
  91   1.0000      -0.267575        -7.2811
  92   1.0000      -0.267364        -7.2753
  93   1.0000      -0.265860        -7.2344
  94   1.0000      -0.264754        -7.2043
  95   1.0000      -0.264584        -7.1997
  96   1.0000      -0.261271        -7.1095
  97   1.0000      -0.260926        -7.1002
  98   1.0000      -0.257776        -7.0144
  99   1.0000      -0.257448        -7.0055
 100   1.0000      -0.252061        -6.8589
 101   1.0000      -0.251570        -6.8456
 102   1.0000      -0.249122        -6.7790
 103   1.0000      -0.247948        -6.7470
 104   1.0000      -0.239984        -6.5303
 105   1.0000      -0.237360        -6.4589
 106   1.0000      -0.236616        -6.4386
 107   1.0000      -0.236158        -6.4262
 108   1.0000      -0.211835        -5.7643
 109   0.0000      -0.171992        -4.6801
 110   0.0000      -0.168522        -4.5857
 111   0.0000      -0.130850        -3.5606
 112   0.0000      -0.124034        -3.3751
 113   0.0000      -0.117619        -3.2006

                 SPIN DOWN ORBITALS
  NO   OCC          E(Eh)            E(eV)
   0   1.0000    -235.039068     -6395.7382
   1   1.0000     -27.133070      -738.3284
   2   1.0000     -23.200569      -631.3196
   3   1.0000     -23.200403      -631.3151
   4   1.0000     -23.199826      -631.2994
   5   1.0000      -4.115310      -111.9833
   6   1.0000      -4.115295      -111.9829
   7   1.0000      -4.115220      -111.9808
   8   1.0000      -4.115192      -111.9801
   9   1.0000      -4.113129      -111.9239
  10   1.0000      -4.113121      -111.9237
  11   1.0000      -4.111833      -111.8887
  12   1.0000      -4.111687      -111.8847
  13   1.0000      -4.109158      -111.8159
  14   1.0000      -4.108784      -111.8057
  15   1.0000      -3.032087       -82.5073
  16   1.0000      -2.308079       -62.8060
  17   1.0000      -2.307453       -62.7890
  18   1.0000      -2.306978       -62.7761
  19   1.0000      -2.306113       -62.7525
  20   1.0000      -2.303993       -62.6948
  21   1.0000      -2.303314       -62.6764
  22   1.0000      -2.302814       -62.6627
  23   1.0000      -2.301937       -62.6389
  24   1.0000      -2.301247       -62.6201
  25   1.0000      -2.301101       -62.6161
  26   1.0000      -2.301062       -62.6151
  27   1.0000      -2.300105       -62.5890
  28   1.0000      -2.299793       -62.5805
  29   1.0000      -2.298832       -62.5544
  30   1.0000      -2.298565       -62.5471
  31   1.0000      -2.297461       -62.5171
  32   1.0000      -2.296557       -62.4925
  33   1.0000      -2.296271       -62.4847
  34   1.0000      -2.296155       -62.4816
  35   1.0000      -2.295417       -62.4615
  36   1.0000      -2.295372       -62.4602
  37   1.0000      -2.294872       -62.4466
  38   1.0000      -2.294543       -62.4377
  39   1.0000      -2.294455       -62.4353
  40   1.0000      -2.294407       -62.4340
  41   1.0000      -2.293894       -62.4200
  42   1.0000      -2.290082       -62.3163
  43   1.0000      -2.289933       -62.3122
  44   1.0000      -2.288118       -62.2629
  45   1.0000      -2.287465       -62.2451
  46   1.0000      -1.891537       -51.4713
  47   1.0000      -1.889907       -51.4270
  48   1.0000      -1.887675       -51.3663
  49   1.0000      -0.410522       -11.1709
  50   1.0000      -0.391675       -10.6580
  51   1.0000      -0.376577       -10.2472
  52   1.0000      -0.374554       -10.1921
  53   1.0000      -0.372558       -10.1378
  54   1.0000      -0.366041        -9.9605
  55   1.0000      -0.363199        -9.8831
  56   1.0000      -0.361488        -9.8366
  57   1.0000      -0.343181        -9.3384
  58   1.0000      -0.342105        -9.3092
  59   1.0000      -0.340638        -9.2692
  60   1.0000      -0.339435        -9.2365
  61   1.0000      -0.335898        -9.1402
  62   1.0000      -0.329570        -8.9681
  63   1.0000      -0.328198        -8.9307
  64   1.0000      -0.322768        -8.7830
  65   1.0000      -0.321825        -8.7573
  66   1.0000      -0.321588        -8.7509
  67   1.0000      -0.318643        -8.6707
  68   1.0000      -0.318376        -8.6634
  69   1.0000      -0.312579        -8.5057
  70   1.0000      -0.306489        -8.3400
  71   1.0000      -0.304354        -8.2819
  72   1.0000      -0.303704        -8.2642
  73   1.0000      -0.301206        -8.1962
  74   1.0000      -0.299115        -8.1393
  75   1.0000      -0.298041        -8.1101
  76   1.0000      -0.294539        -8.0148
  77   1.0000      -0.291937        -7.9440
  78   1.0000      -0.289939        -7.8897
  79   1.0000      -0.288636        -7.8542
  80   1.0000      -0.286652        -7.8002
  81   1.0000      -0.284337        -7.7372
  82   1.0000      -0.281841        -7.6693
  83   1.0000      -0.281067        -7.6482
  84   1.0000      -0.277842        -7.5605
  85   1.0000      -0.277140        -7.5414
  86   1.0000      -0.276532        -7.5248
  87   1.0000      -0.276058        -7.5119
  88   1.0000      -0.273771        -7.4497
  89   1.0000      -0.272650        -7.4192
  90   1.0000      -0.270177        -7.3519
  91   1.0000      -0.268479        -7.3057
  92   1.0000      -0.265009        -7.2113
  93   1.0000      -0.264291        -7.1917
  94   1.0000      -0.262596        -7.1456
  95   1.0000      -0.258465        -7.0332
  96   1.0000      -0.258096        -7.0231
  97   1.0000      -0.256989        -6.9930
  98   1.0000      -0.250322        -6.8116
  99   1.0000      -0.249710        -6.7950
 100   1.0000      -0.244672        -6.6579
 101   1.0000      -0.243409        -6.6235
 102   1.0000      -0.240421        -6.5422
 103   1.0000      -0.222950        -6.0668
 104   1.0000      -0.196080        -5.3356
 105   1.0000      -0.188137        -5.1195
 106   0.0000      -0.141827        -3.8593
 107   0.0000      -0.132093        -3.5944
 108   0.0000      -0.131687        -3.5834
 109   0.0000      -0.111012        -3.0208
 110   0.0000      -0.106862        -2.9079

MULLIKEN ATOMIC CHARGES AND SPIN POPULATIONS
--------------------------------------------
   0 Au:   -0.026017   -0.020212
   1 Au:    0.365118   -0.151313
   2 Au:    0.224949   -0.021047
   3 Au:    0.011428   -0.250296
   4 Au:    0.012329   -0.250306
   5 Au:    0.013890   -0.250503
   6 Au:    0.365056   -0.153418
   7 Au:   -0.030647   -0.018003
   8 Au:    0.012626   -0.249783
   9 Au:    0.223690   -0.021024
  10 Mn:   -1.172423    4.385904
Sum of atomic charges         :   -0.0000000

LOEWDIN ATOMIC CHARGES AND SPIN POPULATIONS
-------------------------------------------
   0 Au:   -0.011559   -0.027539
   1 Au:    0.090420   -0.149985
   2 Au:    0.108674   -0.138244
   3 Au:   -0.028761   -0.154965
   4 Au:   -0.029049   -0.155194
   5 Au:   -0.028977   -0.155768
   6 Au:    0.090175   -0.151260
   7 Au:   -0.011370   -0.026211
   8 Au:   -0.028713   -0.155154
   9 Au:    0.108335   -0.138210
  10 Mn:   -0.259175    4.252530

  Mayer bond orders larger than 0.100000
B(  0-Au,  1-Au) :   0.3288 B(  0-Au,  3-Au) :   0.1153 B(  0-Au,  4-Au) :   0.1159
B(  0-Au,  7-Au) :   0.6537 B(  0-Au, 10-Mn) :   0.5204 B(  1-Au,  3-Au) :   0.3341
B(  1-Au,  4-Au) :   0.3333 B(  2-Au,  3-Au) :   0.4049 B(  2-Au,  8-Au) :   0.4042
B(  2-Au, 10-Mn) :   0.5375 B(  3-Au,  4-Au) :   0.1541 B(  3-Au, 10-Mn) :   0.5008
B(  4-Au,  9-Au) :   0.4047 B(  4-Au, 10-Mn) :   0.5000 B(  5-Au,  6-Au) :   0.3322
B(  5-Au,  7-Au) :   0.1152 B(  5-Au,  8-Au) :   0.1552 B(  5-Au,  9-Au) :   0.4040
B(  5-Au, 10-Mn) :   0.4986 B(  6-Au,  7-Au) :   0.3307 B(  6-Au,  8-Au) :   0.3331
B(  7-Au,  8-Au) :   0.1143 B(  7-Au, 10-Mn) :   0.5249 B(  8-Au, 10-Mn) :   0.5000
B(  9-Au, 10-Mn) :   0.5378

FINAL SINGLE POINT ENERGY     -2509.444077840471

DIPOLE MOMENT
-------------
                                X             Y             Z
Electronic contribution:      8.71808       8.52730     -15.15260
Nuclear contribution   :     -8.71847      -8.52515      15.15415
                        -----------------------------------------
Total Dipole Moment    :     -0.00039       0.00214       0.00155
                        -----------------------------------------
Magnitude (a.u.)       :      0.00267
Magnitude (Debye)      :      0.00679

Rotational constants in cm-1:     0.002381     0.001214     0.001135
Rotational constants in MHz :    71.382518    36.403831    34.039746

                             ****ORCA TERMINATED NORMALLY****
TOTAL RUN TIME: 0 days 0 hours 3 minutes 45 seconds 699 msec
