                         Program Version 5.0.3 -  RELEASE  -
|  1> !RI-B2PLYP def2-TZVP def2-TZVP/C
|  2> !RIJCOSX VERYSLOWCONV
|  3>
|  4> %scf
|  5>   AutoTRAHIter 200
|  6>   maxiter 400
|  7> end
|  8>
|  9>
| 10> %pal nprocs 6 end
| 11>
| 12> *xyzfile 0 5 pbe.xyz
| 13>
| 14> $new_job
| 15>
| 16> !RI-B2PLYP def2-TZVP def2-TZVP/C
| 17> !RIJCOSX VERYSLOWCONV
| 18>
| 19> %scf
| 20>   AutoTRAHIter 200
| 21>   maxiter 400
| 22> end
| 23>
| 24>
| 25> %pal nprocs 6 end
| 26>
| 27> *xyzfile 0 3 pbe.xyz
| 28>
| 29>
| 30>
| 31>
| 32>
| 33>                          ****END OF INPUT****
 Total Charge           Charge          ....    0
 Multiplicity           Mult            ....    5
 Number of Electrons    NEL             ....  254
MP2 TOTAL ENERGY:    -2890.541746915 Eh
FINAL SINGLE POINT ENERGY     -2890.541746914671

CARTESIAN COORDINATES (ANGSTROEM)
---------------------------------
  Au     5.597692    9.701086    4.117308
  Au     8.551342    8.862668    8.157489
  Au     5.400589   10.523043    6.835768
  Au     3.771731    8.516230    7.857753
  Au     5.974964    9.306906    9.281758
  Au     4.253166    7.589620    5.291437
  Au     4.599631    5.945477    7.484112
  Au     7.083285    6.801838    9.244645
  Au     6.408471    4.260533    8.670211
  Au     7.199717    5.478397    6.319307
  Au     6.985196    7.297292    4.406885
  Au     7.926341    9.877003    5.746632
  Fe     6.376106    7.989073    6.892467

 Multiplicity           Mult            ....    3
 Number of Electrons    NEL             ....  254
 Basis Dimension        Dim             ....  525

ORBITAL ENERGIES
----------------
                 SPIN UP ORBITALS
  NO   OCC          E(Eh)            E(eV)
   0   1.0000    -258.333787     -7029.6197
   1   1.0000     -30.893300      -840.6494
   2   1.0000     -26.611499      -724.1357
   3   1.0000     -26.582302      -723.3412
   4   1.0000     -26.580800      -723.3004
   5   1.0000      -4.405069      -119.8680
   6   1.0000      -4.402736      -119.8045
   7   1.0000      -4.402141      -119.7884
   8   1.0000      -4.395984      -119.6208
   9   1.0000      -4.395403      -119.6050
  10   1.0000      -4.393759      -119.5603
  11   1.0000      -4.393639      -119.5570
  12   1.0000      -4.393598      -119.5559
  13   1.0000      -4.393188      -119.5447
  14   1.0000      -4.390806      -119.4799
  15   1.0000      -4.390381      -119.4683
  16   1.0000      -4.378198      -119.1368
  17   1.0000      -3.904352      -106.2428
  18   1.0000      -2.654392       -72.2297
  19   1.0000      -2.594237       -70.5928
  20   1.0000      -2.589829       -70.4728
  21   1.0000      -2.527655       -68.7810
  22   1.0000      -2.524188       -68.6866
  23   1.0000      -2.523454       -68.6667
  24   1.0000      -2.522564       -68.6425
  25   1.0000      -2.521537       -68.6145
  26   1.0000      -2.520364       -68.5826
  27   1.0000      -2.519379       -68.5558
  28   1.0000      -2.518356       -68.5279
  29   1.0000      -2.517139       -68.4948
  30   1.0000      -2.516559       -68.4790
  31   1.0000      -2.516302       -68.4721
  32   1.0000      -2.515582       -68.4525
  33   1.0000      -2.515422       -68.4481
  34   1.0000      -2.513995       -68.4093
  35   1.0000      -2.513620       -68.3991
  36   1.0000      -2.513077       -68.3843
  37   1.0000      -2.512756       -68.3756
  38   1.0000      -2.512506       -68.3688
  39   1.0000      -2.512071       -68.3569
  40   1.0000      -2.510252       -68.3074
  41   1.0000      -2.510077       -68.3027
  42   1.0000      -2.509488       -68.2866
  43   1.0000      -2.509188       -68.2785
  44   1.0000      -2.508269       -68.2535
  45   1.0000      -2.508061       -68.2478
  46   1.0000      -2.507907       -68.2436
  47   1.0000      -2.507006       -68.2191
  48   1.0000      -2.506920       -68.2168
  49   1.0000      -2.506474       -68.2046
  50   1.0000      -2.506296       -68.1998
  51   1.0000      -2.506000       -68.1917
  52   1.0000      -2.503949       -68.1359
  53   1.0000      -2.503268       -68.1174
  54   1.0000      -2.495703       -67.9115
  55   1.0000      -2.494803       -67.8870
  56   1.0000      -2.493427       -67.8496
  57   1.0000      -0.554592       -15.0912
  58   1.0000      -0.551320       -15.0022
  59   1.0000      -0.543780       -14.7970
  60   1.0000      -0.528565       -14.3830
  61   1.0000      -0.506850       -13.7921
  62   1.0000      -0.496486       -13.5101
  63   1.0000      -0.470805       -12.8112
  64   1.0000      -0.464597       -12.6423
  65   1.0000      -0.462686       -12.5903
  66   1.0000      -0.455447       -12.3933
  67   1.0000      -0.453317       -12.3354
  68   1.0000      -0.451438       -12.2843
  69   1.0000      -0.448813       -12.2128
  70   1.0000      -0.444630       -12.0990
  71   1.0000      -0.440714       -11.9924
  72   1.0000      -0.439160       -11.9501
  73   1.0000      -0.438545       -11.9334
  74   1.0000      -0.436869       -11.8878
  75   1.0000      -0.435504       -11.8507
  76   1.0000      -0.433941       -11.8081
  77   1.0000      -0.430808       -11.7229
  78   1.0000      -0.426121       -11.5953
  79   1.0000      -0.423894       -11.5347
  80   1.0000      -0.422353       -11.4928
  81   1.0000      -0.419467       -11.4143
  82   1.0000      -0.416862       -11.3434
  83   1.0000      -0.415728       -11.3125
  84   1.0000      -0.410869       -11.1803
  85   1.0000      -0.409714       -11.1489
  86   1.0000      -0.406579       -11.0636
  87   1.0000      -0.400663       -10.9026
  88   1.0000      -0.400004       -10.8847
  89   1.0000      -0.394777       -10.7424
  90   1.0000      -0.392424       -10.6784
  91   1.0000      -0.391523       -10.6539
  92   1.0000      -0.389268       -10.5925
  93   1.0000      -0.384782       -10.4705
  94   1.0000      -0.382291       -10.4027
  95   1.0000      -0.377581       -10.2745
  96   1.0000      -0.376881       -10.2555
  97   1.0000      -0.376319       -10.2402
  98   1.0000      -0.371150       -10.0995
  99   1.0000      -0.370331       -10.0772
 100   1.0000      -0.368849       -10.0369
 101   1.0000      -0.368264       -10.0210
 102   1.0000      -0.366877        -9.9832
 103   1.0000      -0.364458        -9.9174
 104   1.0000      -0.363558        -9.8929
 105   1.0000      -0.361339        -9.8325
 106   1.0000      -0.360681        -9.8146
 107   1.0000      -0.357785        -9.7358
 108   1.0000      -0.355770        -9.6810
 109   1.0000      -0.353293        -9.6136
 110   1.0000      -0.352611        -9.5950
 111   1.0000      -0.350983        -9.5507
 112   1.0000      -0.348337        -9.4787
 113   1.0000      -0.347277        -9.4499
 114   1.0000      -0.345534        -9.4024
 115   1.0000      -0.343980        -9.3602
 116   1.0000      -0.342149        -9.3103
 117   1.0000      -0.337258        -9.1773
 118   1.0000      -0.335551        -9.1308
 119   1.0000      -0.333426        -9.0730
 120   1.0000      -0.332780        -9.0554
 121   1.0000      -0.321493        -8.7483
 122   1.0000      -0.318624        -8.6702
 123   1.0000      -0.309908        -8.4330
 124   1.0000      -0.301078        -8.1927
 125   1.0000      -0.277223        -7.5436
 126   1.0000      -0.233792        -6.3618
 127   1.0000      -0.204161        -5.5555
 128   0.0000      -0.126892        -3.4529
 129   0.0000      -0.095287        -2.5929
 130   0.0000      -0.082968        -2.2577
 131   0.0000      -0.077802        -2.1171
 132   0.0000      -0.059324        -1.6143

                 SPIN DOWN ORBITALS
  NO   OCC          E(Eh)            E(eV)
   0   1.0000    -258.331747     -7029.5642
   1   1.0000     -30.801184      -838.1428
   2   1.0000     -26.512559      -721.4434
   3   1.0000     -26.505014      -721.2381
   4   1.0000     -26.504734      -721.2305
   5   1.0000      -4.405435      -119.8780
   6   1.0000      -4.403082      -119.8139
   7   1.0000      -4.402728      -119.8043
   8   1.0000      -4.396712      -119.6406
   9   1.0000      -4.394855      -119.5901
  10   1.0000      -4.394660      -119.5848
  11   1.0000      -4.394631      -119.5840
  12   1.0000      -4.394174      -119.5716
  13   1.0000      -4.394024      -119.5675
  14   1.0000      -4.391096      -119.4878
  15   1.0000      -4.390761      -119.4787
  16   1.0000      -4.378620      -119.1483
  17   1.0000      -3.661994       -99.6479
  18   1.0000      -2.527433       -68.7749
  19   1.0000      -2.524151       -68.6856
  20   1.0000      -2.522713       -68.6465
  21   1.0000      -2.522363       -68.6370
  22   1.0000      -2.521843       -68.6228
  23   1.0000      -2.520433       -68.5845
  24   1.0000      -2.519381       -68.5558
  25   1.0000      -2.518548       -68.5332
  26   1.0000      -2.517264       -68.4982
  27   1.0000      -2.516217       -68.4698
  28   1.0000      -2.515701       -68.4557
  29   1.0000      -2.515313       -68.4452
  30   1.0000      -2.514616       -68.4262
  31   1.0000      -2.514354       -68.4191
  32   1.0000      -2.513562       -68.3975
  33   1.0000      -2.513237       -68.3887
  34   1.0000      -2.512248       -68.3617
  35   1.0000      -2.512063       -68.3567
  36   1.0000      -2.511095       -68.3304
  37   1.0000      -2.510836       -68.3233
  38   1.0000      -2.510666       -68.3187
  39   1.0000      -2.509480       -68.2864
  40   1.0000      -2.509036       -68.2743
  41   1.0000      -2.508742       -68.2663
  42   1.0000      -2.508561       -68.2614
  43   1.0000      -2.508392       -68.2568
  44   1.0000      -2.507834       -68.2416
  45   1.0000      -2.507408       -68.2300
  46   1.0000      -2.507081       -68.2211
  47   1.0000      -2.506891       -68.2160
  48   1.0000      -2.505959       -68.1906
  49   1.0000      -2.504804       -68.1592
  50   1.0000      -2.503779       -68.1313
  51   1.0000      -2.496495       -67.9331
  52   1.0000      -2.494905       -67.8898
  53   1.0000      -2.494322       -67.8739
  54   1.0000      -2.341193       -63.7071
  55   1.0000      -2.340287       -63.6824
  56   1.0000      -2.327364       -63.3308
  57   1.0000      -0.505070       -13.7437
  58   1.0000      -0.477256       -12.9868
  59   1.0000      -0.471684       -12.8352
  60   1.0000      -0.471276       -12.8241
  61   1.0000      -0.465056       -12.6548
  62   1.0000      -0.461417       -12.5558
  63   1.0000      -0.456515       -12.4224
  64   1.0000      -0.453635       -12.3440
  65   1.0000      -0.452551       -12.3145
  66   1.0000      -0.449314       -12.2264
  67   1.0000      -0.447770       -12.1845
  68   1.0000      -0.446197       -12.1416
  69   1.0000      -0.442272       -12.0348
  70   1.0000      -0.440751       -11.9935
  71   1.0000      -0.438549       -11.9335
  72   1.0000      -0.436952       -11.8901
  73   1.0000      -0.433651       -11.8002
  74   1.0000      -0.429637       -11.6910
  75   1.0000      -0.427122       -11.6226
  76   1.0000      -0.426557       -11.6072
  77   1.0000      -0.424035       -11.5386
  78   1.0000      -0.418997       -11.4015
  79   1.0000      -0.418186       -11.3794
  80   1.0000      -0.414989       -11.2924
  81   1.0000      -0.410275       -11.1642
  82   1.0000      -0.409062       -11.1311
  83   1.0000      -0.406283       -11.0555
  84   1.0000      -0.400955       -10.9105
  85   1.0000      -0.397562       -10.8182
  86   1.0000      -0.394415       -10.7326
  87   1.0000      -0.393230       -10.7003
  88   1.0000      -0.392364       -10.6768
  89   1.0000      -0.390855       -10.6357
  90   1.0000      -0.387848       -10.5539
  91   1.0000      -0.381050       -10.3689
  92   1.0000      -0.380264       -10.3475
  93   1.0000      -0.375747       -10.2246
  94   1.0000      -0.374944       -10.2028
  95   1.0000      -0.374458       -10.1895
  96   1.0000      -0.371340       -10.1047
  97   1.0000      -0.370943       -10.0939
  98   1.0000      -0.367577       -10.0023
  99   1.0000      -0.364980        -9.9316
 100   1.0000      -0.363328        -9.8867
 101   1.0000      -0.361860        -9.8467
 102   1.0000      -0.359994        -9.7959
 103   1.0000      -0.358062        -9.7434
 104   1.0000      -0.355978        -9.6867
 105   1.0000      -0.354951        -9.6587
 106   1.0000      -0.353073        -9.6076
 107   1.0000      -0.350431        -9.5357
 108   1.0000      -0.350081        -9.5262
 109   1.0000      -0.347707        -9.4616
 110   1.0000      -0.346638        -9.4325
 111   1.0000      -0.345649        -9.4056
 112   1.0000      -0.339908        -9.2494
 113   1.0000      -0.337672        -9.1885
 114   1.0000      -0.336206        -9.1486
 115   1.0000      -0.335676        -9.1342
 116   1.0000      -0.329217        -8.9585
 117   1.0000      -0.327004        -8.8982
 118   1.0000      -0.322645        -8.7796
 119   1.0000      -0.314219        -8.5503
 120   1.0000      -0.310406        -8.4466
 121   1.0000      -0.300158        -8.1677
 122   1.0000      -0.244007        -6.6398
 123   1.0000      -0.231859        -6.3092
 124   1.0000      -0.219915        -5.9842
 125   1.0000      -0.190575        -5.1858
 126   0.0000      -0.087085        -2.3697
 127   0.0000      -0.083615        -2.2753
 128   0.0000      -0.060411        -1.6439
 129   0.0000      -0.043326        -1.1789
 130   0.0000      -0.040625        -1.1055

MULLIKEN ATOMIC CHARGES AND SPIN POPULATIONS
--------------------------------------------
   0 Au:    0.220241    0.031778
   1 Au:    0.233610   -0.236177
   2 Au:    0.008873   -0.121896
   3 Au:    0.245644   -0.093445
   4 Au:    0.302204   -0.188542
   5 Au:    0.054986   -0.147234
   6 Au:    0.080315   -0.232171
   7 Au:   -0.010407    0.062971
   8 Au:    0.318743    0.057128
   9 Au:   -0.007436   -0.124561
  10 Au:    0.194771   -0.204543
  11 Au:    0.159395   -0.291119
  12 Fe:   -1.800939    3.487812
Sum of atomic charges         :   -0.0000000

LOEWDIN ATOMIC CHARGES AND SPIN POPULATIONS
-------------------------------------------
   0 Au:    0.003063   -0.056679
   1 Au:    0.095790   -0.178087
   2 Au:    0.005842   -0.106108
   3 Au:    0.078246   -0.184616
   4 Au:    0.052478   -0.145671
   5 Au:    0.013806   -0.115229
   6 Au:   -0.009251   -0.149693
   7 Au:   -0.064392   -0.013707
   8 Au:    0.117391    0.001826
   9 Au:    0.008949   -0.091579
  10 Au:    0.023043   -0.164253
  11 Au:    0.030455   -0.230667
  12 Fe:   -0.355421    3.434464

  Mayer bond orders larger than 0.100000
B(  0-Au,  2-Au) :   0.1964 B(  0-Au,  5-Au) :   0.3286 B(  0-Au, 10-Au) :   0.2411
B(  0-Au, 11-Au) :   0.1833 B(  0-Au, 12-Fe) :   0.1927 B(  1-Au,  4-Au) :   0.1404
B(  1-Au,  7-Au) :   0.2363 B(  1-Au, 11-Au) :   0.2014 B(  1-Au, 12-Fe) :   0.4976
B(  2-Au,  3-Au) :   0.2030 B(  2-Au,  4-Au) :   0.1626 B(  2-Au, 11-Au) :   0.2127
B(  2-Au, 12-Fe) :   0.4730 B(  3-Au,  4-Au) :   0.2650 B(  3-Au,  5-Au) :   0.1525
B(  3-Au,  6-Au) :   0.3211 B(  3-Au, 12-Fe) :   0.3268 B(  4-Au,  7-Au) :   0.2667
B(  4-Au, 12-Fe) :   0.4282 B(  5-Au,  6-Au) :   0.1621 B(  5-Au, 10-Au) :   0.1086
B(  5-Au, 12-Fe) :   0.5062 B(  6-Au,  7-Au) :   0.1219 B(  6-Au,  8-Au) :   0.3230
B(  6-Au,  9-Au) :   0.1808 B(  6-Au, 12-Fe) :   0.3601 B(  7-Au,  8-Au) :   0.3478
B(  7-Au, 12-Fe) :   0.4196 B(  8-Au,  9-Au) :   0.3030 B(  9-Au, 10-Au) :   0.3374
B(  9-Au, 12-Fe) :   0.5091 B( 10-Au, 11-Au) :   0.1107 B( 10-Au, 12-Fe) :   0.5200
B( 11-Au, 12-Fe) :   0.4466

MP2 TOTAL ENERGY:    -2890.524642294 Eh
FINAL SINGLE POINT ENERGY     -2890.524642294186

DIPOLE MOMENT
-------------
                                X             Y             Z
Electronic contribution:     -8.88823      -5.56797       2.58371
Nuclear contribution   :      8.75580       5.41869      -2.23150
                        -----------------------------------------
Total Dipole Moment    :     -0.13243      -0.14928       0.35222
                        -----------------------------------------
Magnitude (a.u.)       :      0.40482
Magnitude (Debye)      :      1.02897

Rotational constants in cm-1:     0.001610     0.001188     0.001102
Rotational constants in MHz :    48.266877    35.619819    33.022487

                             ****ORCA TERMINATED NORMALLY****
TOTAL RUN TIME: 0 days 1 hours 42 minutes 18 seconds 377 msec
