                         Program Version 5.0.3 -  RELEASE  -
|  1> !PBE def2-TZVP VERYSLOWCONV
|  2>
|  3> %scf
|  4>   AutoTRAHIter 200
|  5>   maxiter 400
|  6> end
|  7>
|  8>
|  9> %pal nprocs 6 end
| 10>
| 11> *xyzfile 0 5 pbe.xyz
| 12>
| 13> $new_job
| 14>
| 15> !PBE def2-TZVP VERYSLOWCONV
| 16>
| 17> %scf
| 18>   AutoTRAHIter 200
| 19>   maxiter 400
| 20> end
| 21>
| 22>
| 23> %pal nprocs 6 end
| 24>
| 25> *xyzfile 0 3 pbe.xyz
| 26>
| 27>
| 28>
| 29>
| 30>
| 31>                          ****END OF INPUT****
 Total Charge           Charge          ....    0
 Multiplicity           Mult            ....    5
 Number of Electrons    NEL             ....  254
FINAL SINGLE POINT ENERGY     -2893.400567318918

CARTESIAN COORDINATES (ANGSTROEM)
---------------------------------
  Au     5.597692    9.701086    4.117308
  Au     8.551342    8.862668    8.157489
  Au     5.400589   10.523043    6.835768
  Au     3.771731    8.516230    7.857753
  Au     5.974964    9.306906    9.281758
  Au     4.253166    7.589620    5.291437
  Au     4.599631    5.945477    7.484112
  Au     7.083285    6.801838    9.244645
  Au     6.408471    4.260533    8.670211
  Au     7.199717    5.478397    6.319307
  Au     6.985196    7.297292    4.406885
  Au     7.926341    9.877003    5.746632
  Fe     6.376106    7.989073    6.892467

 Multiplicity           Mult            ....    3
 Number of Electrons    NEL             ....  254
 Basis Dimension        Dim             ....  525

ORBITAL ENERGIES
----------------
                 SPIN UP ORBITALS
  NO   OCC          E(Eh)            E(eV)
   0   1.0000    -254.745946     -6931.9896
   1   1.0000     -29.580954      -804.9387
   2   1.0000     -25.523835      -694.5389
   3   1.0000     -25.513827      -694.2665
   4   1.0000     -25.513070      -694.2459
   5   1.0000      -4.029081      -109.6369
   6   1.0000      -4.025941      -109.5514
   7   1.0000      -4.024809      -109.5206
   8   1.0000      -4.024704      -109.5178
   9   1.0000      -4.021937      -109.4425
  10   1.0000      -4.021900      -109.4415
  11   1.0000      -4.021758      -109.4376
  12   1.0000      -4.019622      -109.3795
  13   1.0000      -4.019329      -109.3715
  14   1.0000      -4.018671      -109.3536
  15   1.0000      -4.017025      -109.3088
  16   1.0000      -4.011935      -109.1703
  17   1.0000      -3.355331       -91.3032
  18   1.0000      -2.247390       -61.1546
  19   1.0000      -2.242462       -61.0205
  20   1.0000      -2.242068       -61.0098
  21   1.0000      -2.241673       -60.9990
  22   1.0000      -2.240943       -60.9792
  23   1.0000      -2.240440       -60.9655
  24   1.0000      -2.240209       -60.9592
  25   1.0000      -2.239025       -60.9270
  26   1.0000      -2.238672       -60.9174
  27   1.0000      -2.238083       -60.9013
  28   1.0000      -2.237724       -60.8916
  29   1.0000      -2.237211       -60.8776
  30   1.0000      -2.236831       -60.8673
  31   1.0000      -2.236339       -60.8539
  32   1.0000      -2.235988       -60.8443
  33   1.0000      -2.235722       -60.8371
  34   1.0000      -2.235486       -60.8307
  35   1.0000      -2.234850       -60.8134
  36   1.0000      -2.234277       -60.7978
  37   1.0000      -2.233703       -60.7821
  38   1.0000      -2.233634       -60.7803
  39   1.0000      -2.233279       -60.7706
  40   1.0000      -2.233012       -60.7633
  41   1.0000      -2.232465       -60.7485
  42   1.0000      -2.231313       -60.7171
  43   1.0000      -2.230866       -60.7049
  44   1.0000      -2.230185       -60.6864
  45   1.0000      -2.230064       -60.6831
  46   1.0000      -2.229620       -60.6711
  47   1.0000      -2.228932       -60.6523
  48   1.0000      -2.228546       -60.6418
  49   1.0000      -2.225387       -60.5559
  50   1.0000      -2.225369       -60.5554
  51   1.0000      -2.225315       -60.5539
  52   1.0000      -2.224394       -60.5288
  53   1.0000      -2.223617       -60.5077
  54   1.0000      -2.184020       -59.4302
  55   1.0000      -2.162577       -58.8467
  56   1.0000      -2.160947       -58.8024
  57   1.0000      -0.421307       -11.4644
  58   1.0000      -0.381331       -10.3766
  59   1.0000      -0.378005       -10.2861
  60   1.0000      -0.373628       -10.1669
  61   1.0000      -0.368949       -10.0396
  62   1.0000      -0.364607        -9.9214
  63   1.0000      -0.359225        -9.7750
  64   1.0000      -0.354036        -9.6338
  65   1.0000      -0.349170        -9.5014
  66   1.0000      -0.346303        -9.4234
  67   1.0000      -0.344236        -9.3671
  68   1.0000      -0.343338        -9.3427
  69   1.0000      -0.336940        -9.1686
  70   1.0000      -0.336292        -9.1510
  71   1.0000      -0.334111        -9.0916
  72   1.0000      -0.330548        -8.9947
  73   1.0000      -0.328852        -8.9485
  74   1.0000      -0.328115        -8.9285
  75   1.0000      -0.324784        -8.8378
  76   1.0000      -0.324290        -8.8244
  77   1.0000      -0.321467        -8.7476
  78   1.0000      -0.319826        -8.7029
  79   1.0000      -0.317887        -8.6502
  80   1.0000      -0.314531        -8.5588
  81   1.0000      -0.313372        -8.5273
  82   1.0000      -0.309940        -8.4339
  83   1.0000      -0.305900        -8.3240
  84   1.0000      -0.304155        -8.2765
  85   1.0000      -0.300234        -8.1698
  86   1.0000      -0.297088        -8.0842
  87   1.0000      -0.293134        -7.9766
  88   1.0000      -0.292059        -7.9473
  89   1.0000      -0.289403        -7.8750
  90   1.0000      -0.288736        -7.8569
  91   1.0000      -0.286623        -7.7994
  92   1.0000      -0.282472        -7.6865
  93   1.0000      -0.280119        -7.6224
  94   1.0000      -0.278466        -7.5774
  95   1.0000      -0.276319        -7.5190
  96   1.0000      -0.275685        -7.5018
  97   1.0000      -0.270831        -7.3697
  98   1.0000      -0.269720        -7.3394
  99   1.0000      -0.269273        -7.3273
 100   1.0000      -0.267000        -7.2654
 101   1.0000      -0.265156        -7.2153
 102   1.0000      -0.262725        -7.1491
 103   1.0000      -0.260532        -7.0894
 104   1.0000      -0.259797        -7.0694
 105   1.0000      -0.258905        -7.0452
 106   1.0000      -0.256949        -6.9919
 107   1.0000      -0.255351        -6.9484
 108   1.0000      -0.253652        -6.9022
 109   1.0000      -0.252781        -6.8785
 110   1.0000      -0.251328        -6.8390
 111   1.0000      -0.250982        -6.8296
 112   1.0000      -0.249744        -6.7959
 113   1.0000      -0.247958        -6.7473
 114   1.0000      -0.246317        -6.7026
 115   1.0000      -0.245142        -6.6706
 116   1.0000      -0.244297        -6.6477
 117   1.0000      -0.242678        -6.6036
 118   1.0000      -0.241530        -6.5724
 119   1.0000      -0.240489        -6.5440
 120   1.0000      -0.240248        -6.5375
 121   1.0000      -0.236887        -6.4460
 122   1.0000      -0.235570        -6.4102
 123   1.0000      -0.231116        -6.2890
 124   1.0000      -0.230039        -6.2597
 125   1.0000      -0.224568        -6.1108
 126   1.0000      -0.210804        -5.7363
 127   1.0000      -0.189320        -5.1517
 128   0.0000      -0.185189        -5.0393
 129   0.0000      -0.162126        -4.4117
 130   0.0000      -0.145615        -3.9624
 131   0.0000      -0.141472        -3.8496
 132   0.0000      -0.122821        -3.3421

                 SPIN DOWN ORBITALS
  NO   OCC          E(Eh)            E(eV)
   0   1.0000    -254.745310     -6931.9723
   1   1.0000     -29.527461      -803.4830
   2   1.0000     -25.479112      -693.3219
   3   1.0000     -25.475564      -693.2253
   4   1.0000     -25.474869      -693.2064
   5   1.0000      -4.029179      -109.6395
   6   1.0000      -4.026393      -109.5637
   7   1.0000      -4.025088      -109.5282
   8   1.0000      -4.025025      -109.5265
   9   1.0000      -4.022148      -109.4482
  10   1.0000      -4.021987      -109.4438
  11   1.0000      -4.021227      -109.4231
  12   1.0000      -4.019871      -109.3862
  13   1.0000      -4.019759      -109.3832
  14   1.0000      -4.018566      -109.3507
  15   1.0000      -4.017248      -109.3149
  16   1.0000      -4.012422      -109.1836
  17   1.0000      -3.234350       -88.0111
  18   1.0000      -2.247605       -61.1604
  19   1.0000      -2.242620       -61.0248
  20   1.0000      -2.242205       -61.0135
  21   1.0000      -2.241505       -60.9945
  22   1.0000      -2.241272       -60.9881
  23   1.0000      -2.240714       -60.9729
  24   1.0000      -2.240301       -60.9617
  25   1.0000      -2.238916       -60.9240
  26   1.0000      -2.238722       -60.9187
  27   1.0000      -2.238377       -60.9093
  28   1.0000      -2.238140       -60.9029
  29   1.0000      -2.237599       -60.8882
  30   1.0000      -2.236536       -60.8592
  31   1.0000      -2.236229       -60.8509
  32   1.0000      -2.236167       -60.8492
  33   1.0000      -2.235960       -60.8436
  34   1.0000      -2.235661       -60.8354
  35   1.0000      -2.235163       -60.8219
  36   1.0000      -2.234188       -60.7953
  37   1.0000      -2.234012       -60.7905
  38   1.0000      -2.233500       -60.7766
  39   1.0000      -2.232983       -60.7626
  40   1.0000      -2.232401       -60.7467
  41   1.0000      -2.232191       -60.7410
  42   1.0000      -2.231742       -60.7288
  43   1.0000      -2.231088       -60.7110
  44   1.0000      -2.230486       -60.6946
  45   1.0000      -2.230408       -60.6925
  46   1.0000      -2.230230       -60.6876
  47   1.0000      -2.229095       -60.6568
  48   1.0000      -2.228969       -60.6533
  49   1.0000      -2.225854       -60.5686
  50   1.0000      -2.225823       -60.5677
  51   1.0000      -2.225584       -60.5612
  52   1.0000      -2.225112       -60.5484
  53   1.0000      -2.223990       -60.5178
  54   1.0000      -2.053599       -55.8813
  55   1.0000      -2.049905       -55.7807
  56   1.0000      -2.048739       -55.7490
  57   1.0000      -0.418560       -11.3896
  58   1.0000      -0.380904       -10.3649
  59   1.0000      -0.377422       -10.2702
  60   1.0000      -0.372057       -10.1242
  61   1.0000      -0.366260        -9.9664
  62   1.0000      -0.362744        -9.8708
  63   1.0000      -0.353796        -9.6273
  64   1.0000      -0.351464        -9.5638
  65   1.0000      -0.347960        -9.4685
  66   1.0000      -0.345799        -9.4097
  67   1.0000      -0.342976        -9.3328
  68   1.0000      -0.341437        -9.2910
  69   1.0000      -0.336713        -9.1624
  70   1.0000      -0.335795        -9.1374
  71   1.0000      -0.334981        -9.1153
  72   1.0000      -0.331371        -9.0171
  73   1.0000      -0.328943        -8.9510
  74   1.0000      -0.325473        -8.8566
  75   1.0000      -0.324625        -8.8335
  76   1.0000      -0.323595        -8.8055
  77   1.0000      -0.321557        -8.7500
  78   1.0000      -0.317018        -8.6265
  79   1.0000      -0.314030        -8.5452
  80   1.0000      -0.312570        -8.5055
  81   1.0000      -0.310682        -8.4541
  82   1.0000      -0.306861        -8.3501
  83   1.0000      -0.306169        -8.3313
  84   1.0000      -0.301574        -8.2062
  85   1.0000      -0.298424        -8.1205
  86   1.0000      -0.296237        -8.0610
  87   1.0000      -0.290790        -7.9128
  88   1.0000      -0.290650        -7.9090
  89   1.0000      -0.289278        -7.8717
  90   1.0000      -0.287166        -7.8142
  91   1.0000      -0.282865        -7.6972
  92   1.0000      -0.281005        -7.6465
  93   1.0000      -0.279619        -7.6088
  94   1.0000      -0.276728        -7.5301
  95   1.0000      -0.275798        -7.5048
  96   1.0000      -0.274172        -7.4606
  97   1.0000      -0.270532        -7.3615
  98   1.0000      -0.269979        -7.3465
  99   1.0000      -0.269117        -7.3230
 100   1.0000      -0.266946        -7.2640
 101   1.0000      -0.265906        -7.2357
 102   1.0000      -0.262987        -7.1562
 103   1.0000      -0.260878        -7.0989
 104   1.0000      -0.260458        -7.0874
 105   1.0000      -0.258003        -7.0206
 106   1.0000      -0.255916        -6.9638
 107   1.0000      -0.255016        -6.9393
 108   1.0000      -0.254046        -6.9129
 109   1.0000      -0.252936        -6.8827
 110   1.0000      -0.251321        -6.8388
 111   1.0000      -0.250627        -6.8199
 112   1.0000      -0.248177        -6.7532
 113   1.0000      -0.247198        -6.7266
 114   1.0000      -0.245804        -6.6887
 115   1.0000      -0.244538        -6.6542
 116   1.0000      -0.243605        -6.6288
 117   1.0000      -0.241770        -6.5789
 118   1.0000      -0.239691        -6.5223
 119   1.0000      -0.238106        -6.4792
 120   1.0000      -0.226563        -6.1651
 121   1.0000      -0.218010        -5.9324
 122   1.0000      -0.206937        -5.6310
 123   1.0000      -0.201132        -5.4731
 124   1.0000      -0.184399        -5.0178
 125   1.0000      -0.175676        -4.7804
 126   0.0000      -0.155485        -4.2310
 127   0.0000      -0.148938        -4.0528
 128   0.0000      -0.146163        -3.9773
 129   0.0000      -0.140909        -3.8343
 130   0.0000      -0.138994        -3.7822

MULLIKEN ATOMIC CHARGES AND SPIN POPULATIONS
--------------------------------------------
   0 Au:    0.250327    0.031478
   1 Au:    0.276866   -0.130989
   2 Au:    0.081139   -0.062825
   3 Au:    0.235583   -0.085474
   4 Au:    0.262748   -0.140197
   5 Au:    0.122648   -0.097108
   6 Au:    0.089450   -0.119868
   7 Au:    0.049866    0.103774
   8 Au:    0.359117    0.024284
   9 Au:    0.073292   -0.071891
  10 Au:    0.224252   -0.104058
  11 Au:    0.190522   -0.099669
  12 Fe:   -2.215809    2.752542
Sum of atomic charges         :    0.0000000

LOEWDIN ATOMIC CHARGES AND SPIN POPULATIONS
-------------------------------------------
   0 Au:    0.022666   -0.016588
   1 Au:    0.109244   -0.105025
   2 Au:    0.037034   -0.067297
   3 Au:    0.092589   -0.124206
   4 Au:    0.070000   -0.101332
   5 Au:    0.047962   -0.078377
   6 Au:    0.014678   -0.082337
   7 Au:   -0.024253    0.032775
   8 Au:    0.103393   -0.002434
   9 Au:    0.044221   -0.066006
  10 Au:    0.065162   -0.096275
  11 Au:    0.058283   -0.099781
  12 Fe:   -0.640979    2.806883

  Mayer bond orders larger than 0.100000
B(  0-Au,  2-Au) :   0.2459 B(  0-Au,  5-Au) :   0.3358 B(  0-Au, 10-Au) :   0.2685
B(  0-Au, 11-Au) :   0.2049 B(  0-Au, 12-Fe) :   0.2009 B(  1-Au,  4-Au) :   0.1854
B(  1-Au,  7-Au) :   0.2334 B(  1-Au, 11-Au) :   0.2795 B(  1-Au, 12-Fe) :   0.5563
B(  2-Au,  3-Au) :   0.2389 B(  2-Au,  4-Au) :   0.2017 B(  2-Au, 11-Au) :   0.2754
B(  2-Au, 12-Fe) :   0.5238 B(  3-Au,  4-Au) :   0.2510 B(  3-Au,  5-Au) :   0.1973
B(  3-Au,  6-Au) :   0.2906 B(  3-Au, 12-Fe) :   0.4185 B(  4-Au,  7-Au) :   0.2807
B(  4-Au, 12-Fe) :   0.5157 B(  5-Au,  6-Au) :   0.2194 B(  5-Au, 10-Au) :   0.1706
B(  5-Au, 12-Fe) :   0.5762 B(  6-Au,  7-Au) :   0.1023 B(  6-Au,  8-Au) :   0.3547
B(  6-Au,  9-Au) :   0.2183 B(  6-Au, 12-Fe) :   0.4592 B(  7-Au,  8-Au) :   0.3822
B(  7-Au, 12-Fe) :   0.4718 B(  8-Au,  9-Au) :   0.3340 B(  9-Au, 10-Au) :   0.3735
B(  9-Au, 12-Fe) :   0.5519 B( 10-Au, 11-Au) :   0.1037 B( 10-Au, 12-Fe) :   0.5673
B( 11-Au, 12-Fe) :   0.5424

FINAL SINGLE POINT ENERGY     -2893.388103429553

DIPOLE MOMENT
-------------
                                X             Y             Z
Electronic contribution:     -8.94580      -5.52486       2.39711
Nuclear contribution   :      8.75580       5.41869      -2.23150
                        -----------------------------------------
Total Dipole Moment    :     -0.19000      -0.10617       0.16561
                        -----------------------------------------
Magnitude (a.u.)       :      0.27350
Magnitude (Debye)      :      0.69517

Rotational constants in cm-1:     0.001610     0.001188     0.001102
Rotational constants in MHz :    48.266877    35.619819    33.022487

                             ****ORCA TERMINATED NORMALLY****
TOTAL RUN TIME: 0 days 0 hours 20 minutes 31 seconds 183 msec
