                         Program Version 5.0.3 -  RELEASE  -
|  1> !R2SCAN def2-TZVP VERYSLOWCONV
|  2> !KDIIS
|  3> %scf
|  4>   AutoTRAHIter 200
|  5>   maxiter 400
|  6> end
|  7>
|  8> %pal nprocs 6 end
|  9>
| 10> *xyzfile 0 5 pbe.xyz
| 11>
| 12> $new_job
| 13>
| 14> !R2SCAN def2-TZVP VERYSLOWCONV
| 15> !KDIIS
| 16> %scf
| 17>   AutoTRAHIter 200
| 18>   maxiter 400
| 19> end
| 20>
| 21>
| 22> %pal nprocs 6 end
| 23>
| 24> *xyzfile 0 3 pbe.xyz
| 25>
| 26>
| 27>
| 28>
| 29>
| 30>                          ****END OF INPUT****
 Total Charge           Charge          ....    0
 Multiplicity           Mult            ....    5
 Number of Electrons    NEL             ....  254
FINAL SINGLE POINT ENERGY     -2893.839048952213

CARTESIAN COORDINATES (ANGSTROEM)
---------------------------------
  Au     5.597692    9.701086    4.117308
  Au     8.551342    8.862668    8.157489
  Au     5.400589   10.523043    6.835768
  Au     3.771731    8.516230    7.857753
  Au     5.974964    9.306906    9.281758
  Au     4.253166    7.589620    5.291437
  Au     4.599631    5.945477    7.484112
  Au     7.083285    6.801838    9.244645
  Au     6.408471    4.260533    8.670211
  Au     7.199717    5.478397    6.319307
  Au     6.985196    7.297292    4.406885
  Au     7.926341    9.877003    5.746632
  Fe     6.376106    7.989073    6.892467

 Multiplicity           Mult            ....    3
 Number of Electrons    NEL             ....  254
 Basis Dimension        Dim             ....  525

ORBITAL ENERGIES
----------------
                 SPIN UP ORBITALS
  NO   OCC          E(Eh)            E(eV)
   0   1.0000    -255.627127     -6955.9678
   1   1.0000     -29.923056      -814.2477
   2   1.0000     -25.762196      -701.0250
   3   1.0000     -25.750400      -700.7040
   4   1.0000     -25.748856      -700.6620
   5   1.0000      -4.120758      -112.1315
   6   1.0000      -4.118198      -112.0619
   7   1.0000      -4.116226      -112.0082
   8   1.0000      -4.115546      -111.9897
   9   1.0000      -4.113033      -111.9213
  10   1.0000      -4.112749      -111.9136
  11   1.0000      -4.112563      -111.9085
  12   1.0000      -4.111088      -111.8684
  13   1.0000      -4.110299      -111.8469
  14   1.0000      -4.109303      -111.8198
  15   1.0000      -4.108438      -111.7963
  16   1.0000      -4.101629      -111.6110
  17   1.0000      -3.500134       -95.2435
  18   1.0000      -2.311893       -62.9098
  19   1.0000      -2.307124       -62.7800
  20   1.0000      -2.306760       -62.7701
  21   1.0000      -2.305690       -62.7410
  22   1.0000      -2.305620       -62.7391
  23   1.0000      -2.304558       -62.7102
  24   1.0000      -2.304195       -62.7003
  25   1.0000      -2.303063       -62.6695
  26   1.0000      -2.302679       -62.6591
  27   1.0000      -2.302297       -62.6487
  28   1.0000      -2.301895       -62.6377
  29   1.0000      -2.301731       -62.6333
  30   1.0000      -2.300989       -62.6131
  31   1.0000      -2.300200       -62.5916
  32   1.0000      -2.300125       -62.5896
  33   1.0000      -2.299878       -62.5829
  34   1.0000      -2.299137       -62.5627
  35   1.0000      -2.299055       -62.5605
  36   1.0000      -2.297734       -62.5245
  37   1.0000      -2.297599       -62.5208
  38   1.0000      -2.297509       -62.5184
  39   1.0000      -2.297140       -62.5084
  40   1.0000      -2.296669       -62.4955
  41   1.0000      -2.295741       -62.4703
  42   1.0000      -2.295095       -62.4527
  43   1.0000      -2.294526       -62.4372
  44   1.0000      -2.294206       -62.4285
  45   1.0000      -2.293967       -62.4220
  46   1.0000      -2.293106       -62.3986
  47   1.0000      -2.292947       -62.3943
  48   1.0000      -2.292586       -62.3844
  49   1.0000      -2.289956       -62.3129
  50   1.0000      -2.289104       -62.2897
  51   1.0000      -2.287736       -62.2525
  52   1.0000      -2.286648       -62.2229
  53   1.0000      -2.286006       -62.2054
  54   1.0000      -2.282832       -62.1190
  55   1.0000      -2.257299       -61.4242
  56   1.0000      -2.255306       -61.3700
  57   1.0000      -0.427019       -11.6198
  58   1.0000      -0.390102       -10.6152
  59   1.0000      -0.385567       -10.4918
  60   1.0000      -0.381678       -10.3860
  61   1.0000      -0.379755       -10.3337
  62   1.0000      -0.373368       -10.1599
  63   1.0000      -0.370219       -10.0742
  64   1.0000      -0.363757        -9.8983
  65   1.0000      -0.359877        -9.7928
  66   1.0000      -0.356352        -9.6968
  67   1.0000      -0.354774        -9.6539
  68   1.0000      -0.352969        -9.6048
  69   1.0000      -0.347381        -9.4527
  70   1.0000      -0.346357        -9.4248
  71   1.0000      -0.343531        -9.3479
  72   1.0000      -0.340424        -9.2634
  73   1.0000      -0.338777        -9.2186
  74   1.0000      -0.338055        -9.1989
  75   1.0000      -0.334840        -9.1114
  76   1.0000      -0.334700        -9.1077
  77   1.0000      -0.331899        -9.0314
  78   1.0000      -0.329745        -8.9728
  79   1.0000      -0.327590        -8.9142
  80   1.0000      -0.324466        -8.8292
  81   1.0000      -0.322816        -8.7843
  82   1.0000      -0.320140        -8.7115
  83   1.0000      -0.315678        -8.5900
  84   1.0000      -0.314168        -8.5489
  85   1.0000      -0.309577        -8.4240
  86   1.0000      -0.306526        -8.3410
  87   1.0000      -0.303748        -8.2654
  88   1.0000      -0.301814        -8.2128
  89   1.0000      -0.299589        -8.1522
  90   1.0000      -0.298141        -8.1128
  91   1.0000      -0.296381        -8.0649
  92   1.0000      -0.292087        -7.9481
  93   1.0000      -0.289855        -7.8873
  94   1.0000      -0.286646        -7.8000
  95   1.0000      -0.285645        -7.7728
  96   1.0000      -0.284570        -7.7435
  97   1.0000      -0.279969        -7.6183
  98   1.0000      -0.278379        -7.5751
  99   1.0000      -0.277361        -7.5474
 100   1.0000      -0.275788        -7.5046
 101   1.0000      -0.274315        -7.4645
 102   1.0000      -0.271566        -7.3897
 103   1.0000      -0.270228        -7.3533
 104   1.0000      -0.268478        -7.3057
 105   1.0000      -0.267777        -7.2866
 106   1.0000      -0.266608        -7.2548
 107   1.0000      -0.265642        -7.2285
 108   1.0000      -0.263113        -7.1597
 109   1.0000      -0.260902        -7.0995
 110   1.0000      -0.260163        -7.0794
 111   1.0000      -0.259056        -7.0493
 112   1.0000      -0.258135        -7.0242
 113   1.0000      -0.256892        -6.9904
 114   1.0000      -0.255147        -6.9429
 115   1.0000      -0.254291        -6.9196
 116   1.0000      -0.254063        -6.9134
 117   1.0000      -0.252735        -6.8773
 118   1.0000      -0.251457        -6.8425
 119   1.0000      -0.250377        -6.8131
 120   1.0000      -0.247573        -6.7368
 121   1.0000      -0.246890        -6.7182
 122   1.0000      -0.244993        -6.6666
 123   1.0000      -0.240459        -6.5432
 124   1.0000      -0.238448        -6.4885
 125   1.0000      -0.231020        -6.2864
 126   1.0000      -0.213055        -5.7975
 127   1.0000      -0.190599        -5.1865
 128   0.0000      -0.185254        -5.0410
 129   0.0000      -0.158963        -4.3256
 130   0.0000      -0.142140        -3.8678
 131   0.0000      -0.136934        -3.7262
 132   0.0000      -0.117641        -3.2012

                 SPIN DOWN ORBITALS
  NO   OCC          E(Eh)            E(eV)
   0   1.0000    -255.626166     -6955.9416
   1   1.0000     -29.848382      -812.2158
   2   1.0000     -25.699748      -699.3257
   3   1.0000     -25.695877      -699.2204
   4   1.0000     -25.694954      -699.1952
   5   1.0000      -4.121061      -112.1398
   6   1.0000      -4.118809      -112.0785
   7   1.0000      -4.116784      -112.0234
   8   1.0000      -4.116034      -112.0030
   9   1.0000      -4.113335      -111.9295
  10   1.0000      -4.113238      -111.9269
  11   1.0000      -4.112131      -111.8968
  12   1.0000      -4.111473      -111.8789
  13   1.0000      -4.110871      -111.8625
  14   1.0000      -4.109382      -111.8220
  15   1.0000      -4.108973      -111.8108
  16   1.0000      -4.102174      -111.6258
  17   1.0000      -3.335838       -90.7728
  18   1.0000      -2.312201       -62.9182
  19   1.0000      -2.307551       -62.7916
  20   1.0000      -2.306794       -62.7711
  21   1.0000      -2.306177       -62.7543
  22   1.0000      -2.305663       -62.7403
  23   1.0000      -2.304986       -62.7219
  24   1.0000      -2.304046       -62.6963
  25   1.0000      -2.303355       -62.6775
  26   1.0000      -2.302695       -62.6595
  27   1.0000      -2.302513       -62.6546
  28   1.0000      -2.302360       -62.6504
  29   1.0000      -2.302160       -62.6450
  30   1.0000      -2.300731       -62.6061
  31   1.0000      -2.300555       -62.6013
  32   1.0000      -2.300279       -62.5938
  33   1.0000      -2.299927       -62.5842
  34   1.0000      -2.299443       -62.5710
  35   1.0000      -2.299328       -62.5679
  36   1.0000      -2.298151       -62.5359
  37   1.0000      -2.297781       -62.5258
  38   1.0000      -2.297344       -62.5139
  39   1.0000      -2.296986       -62.5042
  40   1.0000      -2.295936       -62.4756
  41   1.0000      -2.295730       -62.4700
  42   1.0000      -2.295627       -62.4672
  43   1.0000      -2.294850       -62.4460
  44   1.0000      -2.294785       -62.4443
  45   1.0000      -2.294313       -62.4314
  46   1.0000      -2.293812       -62.4178
  47   1.0000      -2.293612       -62.4124
  48   1.0000      -2.292930       -62.3938
  49   1.0000      -2.290560       -62.3293
  50   1.0000      -2.289469       -62.2996
  51   1.0000      -2.288365       -62.2696
  52   1.0000      -2.287534       -62.2470
  53   1.0000      -2.286450       -62.2175
  54   1.0000      -2.107607       -57.3509
  55   1.0000      -2.101600       -57.1875
  56   1.0000      -2.101253       -57.1780
  57   1.0000      -0.425550       -11.5798
  58   1.0000      -0.388943       -10.5837
  59   1.0000      -0.384588       -10.4652
  60   1.0000      -0.379398       -10.3239
  61   1.0000      -0.375543       -10.2190
  62   1.0000      -0.371485       -10.1086
  63   1.0000      -0.362325        -9.8594
  64   1.0000      -0.360287        -9.8039
  65   1.0000      -0.357922        -9.7396
  66   1.0000      -0.355424        -9.6716
  67   1.0000      -0.352990        -9.6053
  68   1.0000      -0.351168        -9.5558
  69   1.0000      -0.346568        -9.4306
  70   1.0000      -0.345864        -9.4114
  71   1.0000      -0.344806        -9.3826
  72   1.0000      -0.341045        -9.2803
  73   1.0000      -0.339027        -9.2254
  74   1.0000      -0.334813        -9.1107
  75   1.0000      -0.334436        -9.1005
  76   1.0000      -0.333067        -9.0632
  77   1.0000      -0.331269        -9.0143
  78   1.0000      -0.326521        -8.8851
  79   1.0000      -0.323691        -8.8081
  80   1.0000      -0.321895        -8.7592
  81   1.0000      -0.319172        -8.6851
  82   1.0000      -0.316442        -8.6108
  83   1.0000      -0.315400        -8.5825
  84   1.0000      -0.310540        -8.4502
  85   1.0000      -0.307839        -8.3767
  86   1.0000      -0.304933        -8.2977
  87   1.0000      -0.300250        -8.1702
  88   1.0000      -0.299659        -8.1541
  89   1.0000      -0.298823        -8.1314
  90   1.0000      -0.296356        -8.0643
  91   1.0000      -0.291139        -7.9223
  92   1.0000      -0.290011        -7.8916
  93   1.0000      -0.288020        -7.8374
  94   1.0000      -0.285365        -7.7652
  95   1.0000      -0.284701        -7.7471
  96   1.0000      -0.283171        -7.7055
  97   1.0000      -0.279487        -7.6052
  98   1.0000      -0.278856        -7.5881
  99   1.0000      -0.277196        -7.5429
 100   1.0000      -0.275578        -7.4989
 101   1.0000      -0.275009        -7.4834
 102   1.0000      -0.271370        -7.3844
 103   1.0000      -0.269473        -7.3327
 104   1.0000      -0.268690        -7.3114
 105   1.0000      -0.266282        -7.2459
 106   1.0000      -0.264403        -7.1948
 107   1.0000      -0.263574        -7.1722
 108   1.0000      -0.262703        -7.1485
 109   1.0000      -0.260914        -7.0998
 110   1.0000      -0.259612        -7.0644
 111   1.0000      -0.259424        -7.0593
 112   1.0000      -0.255674        -6.9572
 113   1.0000      -0.255051        -6.9403
 114   1.0000      -0.253377        -6.8947
 115   1.0000      -0.252128        -6.8608
 116   1.0000      -0.250624        -6.8198
 117   1.0000      -0.248769        -6.7693
 118   1.0000      -0.246769        -6.7149
 119   1.0000      -0.244796        -6.6612
 120   1.0000      -0.233627        -6.3573
 121   1.0000      -0.220345        -5.9959
 122   1.0000      -0.208878        -5.6838
 123   1.0000      -0.202057        -5.4983
 124   1.0000      -0.184166        -5.0114
 125   1.0000      -0.178666        -4.8618
 126   0.0000      -0.147068        -4.0019
 127   0.0000      -0.144101        -3.9212
 128   0.0000      -0.140640        -3.8270
 129   0.0000      -0.130864        -3.5610
 130   0.0000      -0.125013        -3.4018

MULLIKEN ATOMIC CHARGES AND SPIN POPULATIONS
--------------------------------------------
   0 Au:    0.208630    0.031773
   1 Au:    0.254409   -0.166937
   2 Au:    0.057446   -0.076374
   3 Au:    0.221476   -0.088043
   4 Au:    0.259549   -0.163704
   5 Au:    0.104341   -0.111300
   6 Au:    0.090268   -0.150916
   7 Au:    0.021918    0.093849
   8 Au:    0.325446    0.031476
   9 Au:    0.047988   -0.092073
  10 Au:    0.215471   -0.132537
  11 Au:    0.174324   -0.150290
  12 Fe:   -1.981265    2.975076
Sum of atomic charges         :   -0.0000000

LOEWDIN ATOMIC CHARGES AND SPIN POPULATIONS
-------------------------------------------
   0 Au:    0.012384   -0.023703
   1 Au:    0.104505   -0.131972
   2 Au:    0.029194   -0.080013
   3 Au:    0.090592   -0.137547
   4 Au:    0.066784   -0.117053
   5 Au:    0.040861   -0.090824
   6 Au:    0.013137   -0.100292
   7 Au:   -0.034032    0.018499
   8 Au:    0.099716   -0.001929
   9 Au:    0.035329   -0.079708
  10 Au:    0.058088   -0.117120
  11 Au:    0.053564   -0.134050
  12 Fe:   -0.570122    2.995712

  Mayer bond orders larger than 0.100000
B(  0-Au,  2-Au) :   0.2254 B(  0-Au,  5-Au) :   0.3369 B(  0-Au, 10-Au) :   0.2519
B(  0-Au, 11-Au) :   0.1833 B(  0-Au, 12-Fe) :   0.1813 B(  1-Au,  4-Au) :   0.1734
B(  1-Au,  7-Au) :   0.2311 B(  1-Au, 11-Au) :   0.2686 B(  1-Au, 12-Fe) :   0.5437
B(  2-Au,  3-Au) :   0.2287 B(  2-Au,  4-Au) :   0.1914 B(  2-Au, 11-Au) :   0.2646
B(  2-Au, 12-Fe) :   0.5014 B(  3-Au,  4-Au) :   0.2489 B(  3-Au,  5-Au) :   0.1840
B(  3-Au,  6-Au) :   0.2981 B(  3-Au, 12-Fe) :   0.4042 B(  4-Au,  7-Au) :   0.2781
B(  4-Au, 12-Fe) :   0.4875 B(  5-Au,  6-Au) :   0.2092 B(  5-Au, 10-Au) :   0.1520
B(  5-Au, 12-Fe) :   0.5531 B(  6-Au,  8-Au) :   0.3459 B(  6-Au,  9-Au) :   0.1974
B(  6-Au, 12-Fe) :   0.4287 B(  7-Au,  8-Au) :   0.3725 B(  7-Au, 12-Fe) :   0.4444
B(  8-Au,  9-Au) :   0.3196 B(  9-Au, 10-Au) :   0.3779 B(  9-Au, 12-Fe) :   0.5432
B( 10-Au, 12-Fe) :   0.5556 B( 11-Au, 12-Fe) :   0.5205

FINAL SINGLE POINT ENERGY     -2893.831171888391

DIPOLE MOMENT
-------------
                                X             Y             Z
Electronic contribution:     -8.95451      -5.52217       2.43769
Nuclear contribution   :      8.75580       5.41869      -2.23150
                        -----------------------------------------
Total Dipole Moment    :     -0.19871      -0.10348       0.20619
                        -----------------------------------------
Magnitude (a.u.)       :      0.30448
Magnitude (Debye)      :      0.77393

Rotational constants in cm-1:     0.001610     0.001188     0.001102
Rotational constants in MHz :    48.266877    35.619819    33.022487

                             ****ORCA TERMINATED NORMALLY****
TOTAL RUN TIME: 0 days 0 hours 17 minutes 12 seconds 142 msec
