                         Program Version 5.0.3 -  RELEASE  -
|  1> %pal nprocs 1 end
|  2>
|  3> !PBE def2-TZVP OPT UNO
|  4> !SLOWCONV
|  5>
|  6> *xyzfile 0 5 9.xyz                           ****END OF INPUT****
 Total Charge           Charge          ....    0
 Multiplicity           Mult            ....    5
 Number of Electrons    NEL             ....  330
FINAL SINGLE POINT ENERGY     -3436.748206814214
FINAL SINGLE POINT ENERGY     -3436.750894892842
FINAL SINGLE POINT ENERGY     -3436.751808041865
FINAL SINGLE POINT ENERGY     -3436.752602966772
FINAL SINGLE POINT ENERGY     -3436.753387498836
FINAL SINGLE POINT ENERGY     -3436.754085102937
FINAL SINGLE POINT ENERGY     -3436.754662751951
FINAL SINGLE POINT ENERGY     -3436.755073474878
FINAL SINGLE POINT ENERGY     -3436.755393855976
FINAL SINGLE POINT ENERGY     -3436.755698305690
FINAL SINGLE POINT ENERGY     -3436.756911455480
FINAL SINGLE POINT ENERGY     -3436.756919354816
FINAL SINGLE POINT ENERGY     -3436.756926912594
FINAL SINGLE POINT ENERGY     -3436.756932938823
FINAL SINGLE POINT ENERGY     -3436.756939382757
FINAL SINGLE POINT ENERGY     -3436.756945489962
FINAL SINGLE POINT ENERGY     -3436.756949550220
FINAL SINGLE POINT ENERGY     -3436.756952028188
FINAL SINGLE POINT ENERGY     -3436.756953601189
                    ***********************HURRAY********************

CARTESIAN COORDINATES (ANGSTROEM)
---------------------------------
  Au    10.957578    6.031971    7.021700
  Au     5.361030    9.046427   10.530731
  Au     7.533380    7.294619   11.001785
  Au     9.341546    6.680263    9.140317
  Au     9.555219    8.362764    6.907185
  Au     7.433026    9.969783    6.351829
  Au     5.113603    9.796674    7.925486
  Au     7.812672    9.194024    8.980092
  Au     5.194151    8.640084    5.393103
  Au     7.656368    7.421276    5.056093
  Au     8.312161    5.373539    6.809477
  Au     4.972714    6.288429   10.917855
  Au     3.551985    7.436970    7.224629
  Au     7.018729    4.997384    9.237041
  Au     5.709743    5.874611    6.282554
  Au     4.287731    5.113419    8.529789
  Fe     5.926053    7.311350    8.560386

 Multiplicity           Mult            ....    5
 Number of Electrons    NEL             ....  330
 Basis Dimension        Dim             ....  685

ORBITAL ENERGIES
----------------
                 SPIN UP ORBITALS
  NO   OCC          E(Eh)            E(eV)
   0   1.0000    -254.763024     -6932.4543
   1   1.0000     -29.600065      -805.4587
   2   1.0000     -25.543297      -695.0684
   3   1.0000     -25.538190      -694.9295
   4   1.0000     -25.524080      -694.5455
   5   1.0000      -4.040831      -109.9566
   6   1.0000      -4.038642      -109.8970
   7   1.0000      -4.035446      -109.8101
   8   1.0000      -4.032654      -109.7341
   9   1.0000      -4.032414      -109.7276
  10   1.0000      -4.032298      -109.7244
  11   1.0000      -4.029296      -109.6427
  12   1.0000      -4.029084      -109.6370
  13   1.0000      -4.028501      -109.6211
  14   1.0000      -4.026924      -109.5782
  15   1.0000      -4.026498      -109.5666
  16   1.0000      -4.025781      -109.5471
  17   1.0000      -4.025015      -109.5262
  18   1.0000      -4.023511      -109.4853
  19   1.0000      -4.021196      -109.4223
  20   1.0000      -4.019009      -109.3628
  21   1.0000      -3.381033       -92.0026
  22   1.0000      -2.256774       -61.4099
  23   1.0000      -2.254268       -61.3418
  24   1.0000      -2.253134       -61.3109
  25   1.0000      -2.251665       -61.2709
  26   1.0000      -2.251176       -61.2576
  27   1.0000      -2.251072       -61.2548
  28   1.0000      -2.250338       -61.2348
  29   1.0000      -2.249002       -61.1985
  30   1.0000      -2.248373       -61.1814
  31   1.0000      -2.248279       -61.1788
  32   1.0000      -2.247070       -61.1459
  33   1.0000      -2.246647       -61.1344
  34   1.0000      -2.245993       -61.1166
  35   1.0000      -2.245760       -61.1102
  36   1.0000      -2.245657       -61.1074
  37   1.0000      -2.244866       -61.0859
  38   1.0000      -2.244524       -61.0766
  39   1.0000      -2.244266       -61.0696
  40   1.0000      -2.244043       -61.0635
  41   1.0000      -2.243870       -61.0588
  42   1.0000      -2.243643       -61.0526
  43   1.0000      -2.243016       -61.0356
  44   1.0000      -2.242612       -61.0246
  45   1.0000      -2.242373       -61.0181
  46   1.0000      -2.241897       -61.0051
  47   1.0000      -2.240964       -60.9797
  48   1.0000      -2.240627       -60.9705
  49   1.0000      -2.240201       -60.9590
  50   1.0000      -2.240078       -60.9556
  51   1.0000      -2.239952       -60.9522
  52   1.0000      -2.239403       -60.9373
  53   1.0000      -2.238992       -60.9261
  54   1.0000      -2.238624       -60.9160
  55   1.0000      -2.238463       -60.9117
  56   1.0000      -2.237988       -60.8988
  57   1.0000      -2.237122       -60.8752
  58   1.0000      -2.236574       -60.8603
  59   1.0000      -2.236316       -60.8532
  60   1.0000      -2.235761       -60.8381
  61   1.0000      -2.235587       -60.8334
  62   1.0000      -2.235381       -60.8278
  63   1.0000      -2.234336       -60.7994
  64   1.0000      -2.233545       -60.7778
  65   1.0000      -2.233493       -60.7764
  66   1.0000      -2.232547       -60.7507
  67   1.0000      -2.230878       -60.7053
  68   1.0000      -2.230261       -60.6885
  69   1.0000      -2.229052       -60.6556
  70   1.0000      -2.211316       -60.1730
  71   1.0000      -2.201296       -59.9003
  72   1.0000      -2.171320       -59.0846
  73   1.0000      -0.434731       -11.8296
  74   1.0000      -0.399073       -10.8593
  75   1.0000      -0.394763       -10.7420
  76   1.0000      -0.389756       -10.6058
  77   1.0000      -0.381565       -10.3829
  78   1.0000      -0.380440       -10.3523
  79   1.0000      -0.373531       -10.1643
  80   1.0000      -0.371925       -10.1206
  81   1.0000      -0.370470       -10.0810
  82   1.0000      -0.368098       -10.0165
  83   1.0000      -0.363969        -9.9041
  84   1.0000      -0.361194        -9.8286
  85   1.0000      -0.358729        -9.7615
  86   1.0000      -0.357677        -9.7329
  87   1.0000      -0.356546        -9.7021
  88   1.0000      -0.353973        -9.6321
  89   1.0000      -0.351221        -9.5572
  90   1.0000      -0.350649        -9.5416
  91   1.0000      -0.349856        -9.5201
  92   1.0000      -0.348463        -9.4822
  93   1.0000      -0.346723        -9.4348
  94   1.0000      -0.344872        -9.3844
  95   1.0000      -0.342678        -9.3248
  96   1.0000      -0.341985        -9.3059
  97   1.0000      -0.338374        -9.2076
  98   1.0000      -0.337412        -9.1814
  99   1.0000      -0.335406        -9.1269
 100   1.0000      -0.333748        -9.0817
 101   1.0000      -0.332668        -9.0524
 102   1.0000      -0.329917        -8.9775
 103   1.0000      -0.327048        -8.8994
 104   1.0000      -0.324961        -8.8426
 105   1.0000      -0.323415        -8.8006
 106   1.0000      -0.322500        -8.7757
 107   1.0000      -0.319472        -8.6933
 108   1.0000      -0.317910        -8.6508
 109   1.0000      -0.313499        -8.5307
 110   1.0000      -0.311412        -8.4740
 111   1.0000      -0.307986        -8.3807
 112   1.0000      -0.307096        -8.3565
 113   1.0000      -0.302324        -8.2266
 114   1.0000      -0.299410        -8.1474
 115   1.0000      -0.298095        -8.1116
 116   1.0000      -0.296015        -8.0550
 117   1.0000      -0.294339        -8.0094
 118   1.0000      -0.291022        -7.9191
 119   1.0000      -0.290115        -7.8944
 120   1.0000      -0.288417        -7.8482
 121   1.0000      -0.286201        -7.7879
 122   1.0000      -0.285378        -7.7655
 123   1.0000      -0.283152        -7.7049
 124   1.0000      -0.279912        -7.6168
 125   1.0000      -0.278748        -7.5851
 126   1.0000      -0.278250        -7.5716
 127   1.0000      -0.276436        -7.5222
 128   1.0000      -0.275284        -7.4908
 129   1.0000      -0.275184        -7.4881
 130   1.0000      -0.274388        -7.4665
 131   1.0000      -0.272603        -7.4179
 132   1.0000      -0.271517        -7.3883
 133   1.0000      -0.271053        -7.3757
 134   1.0000      -0.269754        -7.3404
 135   1.0000      -0.268362        -7.3025
 136   1.0000      -0.267637        -7.2828
 137   1.0000      -0.266162        -7.2426
 138   1.0000      -0.264389        -7.1944
 139   1.0000      -0.263362        -7.1664
 140   1.0000      -0.261796        -7.1238
 141   1.0000      -0.260985        -7.1018
 142   1.0000      -0.259501        -7.0614
 143   1.0000      -0.259050        -7.0491
 144   1.0000      -0.257871        -7.0170
 145   1.0000      -0.256621        -6.9830
 146   1.0000      -0.255282        -6.9466
 147   1.0000      -0.253839        -6.9073
 148   1.0000      -0.252767        -6.8781
 149   1.0000      -0.251952        -6.8560
 150   1.0000      -0.251758        -6.8507
 151   1.0000      -0.250453        -6.8152
 152   1.0000      -0.248652        -6.7662
 153   1.0000      -0.247789        -6.7427
 154   1.0000      -0.246367        -6.7040
 155   1.0000      -0.246219        -6.7000
 156   1.0000      -0.244842        -6.6625
 157   1.0000      -0.244547        -6.6545
 158   1.0000      -0.242660        -6.6031
 159   1.0000      -0.240240        -6.5373
 160   1.0000      -0.236463        -6.4345
 161   1.0000      -0.233039        -6.3413
 162   1.0000      -0.225705        -6.1417
 163   1.0000      -0.217136        -5.9086
 164   1.0000      -0.214232        -5.8296
 165   1.0000      -0.208328        -5.6689
 166   1.0000      -0.201585        -5.4854
 167   0.0000      -0.155394        -4.2285
 168   0.0000      -0.141568        -3.8523
 169   0.0000      -0.139177        -3.7872
 170   0.0000      -0.134513        -3.6603
 171   0.0000      -0.130552        -3.5525

                 SPIN DOWN ORBITALS
  NO   OCC          E(Eh)            E(eV)
   0   1.0000    -254.762322     -6932.4352
   1   1.0000     -29.539887      -803.8212
   2   1.0000     -25.494173      -693.7317
   3   1.0000     -25.491480      -693.6584
   4   1.0000     -25.483611      -693.4443
   5   1.0000      -4.039860      -109.9302
   6   1.0000      -4.037601      -109.8687
   7   1.0000      -4.034357      -109.7804
   8   1.0000      -4.031883      -109.7131
   9   1.0000      -4.031820      -109.7114
  10   1.0000      -4.031525      -109.7034
  11   1.0000      -4.028467      -109.6202
  12   1.0000      -4.028463      -109.6200
  13   1.0000      -4.028284      -109.6152
  14   1.0000      -4.026554      -109.5681
  15   1.0000      -4.026038      -109.5541
  16   1.0000      -4.025602      -109.5422
  17   1.0000      -4.024862      -109.5221
  18   1.0000      -4.023311      -109.4798
  19   1.0000      -4.020930      -109.4151
  20   1.0000      -4.018870      -109.3590
  21   1.0000      -3.244251       -88.2806
  22   1.0000      -2.255745       -61.3819
  23   1.0000      -2.253011       -61.3076
  24   1.0000      -2.251830       -61.2754
  25   1.0000      -2.250518       -61.2397
  26   1.0000      -2.250379       -61.2359
  27   1.0000      -2.250042       -61.2268
  28   1.0000      -2.249619       -61.2153
  29   1.0000      -2.248168       -61.1758
  30   1.0000      -2.246986       -61.1436
  31   1.0000      -2.246887       -61.1409
  32   1.0000      -2.246268       -61.1241
  33   1.0000      -2.245856       -61.1128
  34   1.0000      -2.245166       -61.0941
  35   1.0000      -2.244927       -61.0876
  36   1.0000      -2.244787       -61.0838
  37   1.0000      -2.244331       -61.0713
  38   1.0000      -2.244075       -61.0644
  39   1.0000      -2.243745       -61.0554
  40   1.0000      -2.243401       -61.0460
  41   1.0000      -2.242964       -61.0342
  42   1.0000      -2.242737       -61.0280
  43   1.0000      -2.242669       -61.0261
  44   1.0000      -2.241987       -61.0076
  45   1.0000      -2.241638       -60.9981
  46   1.0000      -2.241286       -60.9885
  47   1.0000      -2.240365       -60.9634
  48   1.0000      -2.239958       -60.9524
  49   1.0000      -2.239885       -60.9504
  50   1.0000      -2.239621       -60.9432
  51   1.0000      -2.239277       -60.9338
  52   1.0000      -2.239085       -60.9286
  53   1.0000      -2.238504       -60.9128
  54   1.0000      -2.238280       -60.9067
  55   1.0000      -2.237814       -60.8940
  56   1.0000      -2.237758       -60.8925
  57   1.0000      -2.237060       -60.8735
  58   1.0000      -2.236375       -60.8549
  59   1.0000      -2.235596       -60.8337
  60   1.0000      -2.235498       -60.8310
  61   1.0000      -2.235326       -60.8263
  62   1.0000      -2.235210       -60.8232
  63   1.0000      -2.234195       -60.7955
  64   1.0000      -2.233547       -60.7779
  65   1.0000      -2.233358       -60.7728
  66   1.0000      -2.232324       -60.7446
  67   1.0000      -2.230716       -60.7009
  68   1.0000      -2.230086       -60.6837
  69   1.0000      -2.228927       -60.6522
  70   1.0000      -2.066971       -56.2451
  71   1.0000      -2.063925       -56.1622
  72   1.0000      -2.051427       -55.8222
  73   1.0000      -0.430231       -11.7072
  74   1.0000      -0.397224       -10.8090
  75   1.0000      -0.393484       -10.7073
  76   1.0000      -0.388557       -10.5732
  77   1.0000      -0.373573       -10.1654
  78   1.0000      -0.373250       -10.1566
  79   1.0000      -0.369413       -10.0522
  80   1.0000      -0.368354       -10.0234
  81   1.0000      -0.368013       -10.0142
  82   1.0000      -0.365462        -9.9447
  83   1.0000      -0.361538        -9.8379
  84   1.0000      -0.359478        -9.7819
  85   1.0000      -0.356213        -9.6930
  86   1.0000      -0.355921        -9.6851
  87   1.0000      -0.353634        -9.6229
  88   1.0000      -0.352347        -9.5878
  89   1.0000      -0.348993        -9.4966
  90   1.0000      -0.348755        -9.4901
  91   1.0000      -0.347541        -9.4571
  92   1.0000      -0.346622        -9.4321
  93   1.0000      -0.345616        -9.4047
  94   1.0000      -0.343417        -9.3449
  95   1.0000      -0.339844        -9.2476
  96   1.0000      -0.337955        -9.1962
  97   1.0000      -0.336366        -9.1530
  98   1.0000      -0.335114        -9.1189
  99   1.0000      -0.333774        -9.0825
 100   1.0000      -0.330662        -8.9978
 101   1.0000      -0.329270        -8.9599
 102   1.0000      -0.326797        -8.8926
 103   1.0000      -0.325618        -8.8605
 104   1.0000      -0.321770        -8.7558
 105   1.0000      -0.320593        -8.7238
 106   1.0000      -0.317561        -8.6413
 107   1.0000      -0.314827        -8.5669
 108   1.0000      -0.312320        -8.4987
 109   1.0000      -0.307844        -8.3769
 110   1.0000      -0.305619        -8.3163
 111   1.0000      -0.304300        -8.2804
 112   1.0000      -0.301729        -8.2105
 113   1.0000      -0.299279        -8.1438
 114   1.0000      -0.296797        -8.0763
 115   1.0000      -0.295354        -8.0370
 116   1.0000      -0.291936        -7.9440
 117   1.0000      -0.290394        -7.9020
 118   1.0000      -0.287718        -7.8292
 119   1.0000      -0.286471        -7.7953
 120   1.0000      -0.284573        -7.7436
 121   1.0000      -0.283049        -7.7022
 122   1.0000      -0.281082        -7.6486
 123   1.0000      -0.279179        -7.5969
 124   1.0000      -0.278731        -7.5846
 125   1.0000      -0.277106        -7.5404
 126   1.0000      -0.276574        -7.5260
 127   1.0000      -0.275396        -7.4939
 128   1.0000      -0.274569        -7.4714
 129   1.0000      -0.272314        -7.4100
 130   1.0000      -0.271575        -7.3899
 131   1.0000      -0.271003        -7.3744
 132   1.0000      -0.270391        -7.3577
 133   1.0000      -0.268780        -7.3139
 134   1.0000      -0.267531        -7.2799
 135   1.0000      -0.266898        -7.2627
 136   1.0000      -0.264915        -7.2087
 137   1.0000      -0.264287        -7.1916
 138   1.0000      -0.262593        -7.1455
 139   1.0000      -0.260803        -7.0968
 140   1.0000      -0.258517        -7.0346
 141   1.0000      -0.257658        -7.0112
 142   1.0000      -0.256754        -6.9866
 143   1.0000      -0.255965        -6.9652
 144   1.0000      -0.253359        -6.8942
 145   1.0000      -0.252861        -6.8807
 146   1.0000      -0.251116        -6.8332
 147   1.0000      -0.250745        -6.8231
 148   1.0000      -0.248100        -6.7512
 149   1.0000      -0.246668        -6.7122
 150   1.0000      -0.246094        -6.6966
 151   1.0000      -0.244826        -6.6620
 152   1.0000      -0.244291        -6.6475
 153   1.0000      -0.243054        -6.6138
 154   1.0000      -0.240119        -6.5340
 155   1.0000      -0.236194        -6.4272
 156   1.0000      -0.233105        -6.3431
 157   1.0000      -0.226700        -6.1688
 158   1.0000      -0.219633        -5.9765
 159   1.0000      -0.218230        -5.9383
 160   1.0000      -0.214146        -5.8272
 161   1.0000      -0.210666        -5.7325
 162   1.0000      -0.186553        -5.0764
 163   0.0000      -0.169951        -4.6246
 164   0.0000      -0.168260        -4.5786
 165   0.0000      -0.161512        -4.3950
 166   0.0000      -0.153577        -4.1790
 167   0.0000      -0.146504        -3.9866

MULLIKEN ATOMIC CHARGES AND SPIN POPULATIONS
--------------------------------------------
   0 Au:    0.539250   -0.017204
   1 Au:    0.354183    0.052256
   2 Au:    0.301682    0.047822
   3 Au:   -0.266341    0.022562
   4 Au:   -0.157441    0.039793
   5 Au:    0.206312    0.055074
   6 Au:    0.132102    0.087583
   7 Au:   -0.159733    0.070054
   8 Au:    0.137427    0.061519
   9 Au:    0.156866    0.053058
  10 Au:   -0.202166    0.032397
  11 Au:    0.319340    0.068773
  12 Au:    0.300310    0.060470
  13 Au:    0.120631    0.096477
  14 Au:   -0.050210    0.067276
  15 Au:    0.335629    0.034666
  16 Fe:   -2.067841    3.167422
Sum of atomic charges         :    0.0000000

LOEWDIN ATOMIC CHARGES AND SPIN POPULATIONS
-------------------------------------------
   0 Au:    0.147443   -0.001912
   1 Au:    0.098994    0.037053
   2 Au:    0.034046    0.043137
   3 Au:   -0.074602    0.023090
   4 Au:   -0.062496    0.030127
   5 Au:    0.014334    0.053061
   6 Au:    0.030311    0.070141
   7 Au:    0.012611    0.063387
   8 Au:   -0.007388    0.058653
   9 Au:    0.017821    0.048119
  10 Au:   -0.071017    0.025597
  11 Au:    0.068277    0.049117
  12 Au:    0.091263    0.042361
  13 Au:    0.040567    0.071986
  14 Au:    0.006746    0.062273
  15 Au:    0.086385    0.029531
  16 Fe:   -0.433295    3.294280

  Mayer bond orders larger than 0.100000
B(  0-Au,  3-Au) :   0.3528 B(  0-Au,  4-Au) :   0.3236 B(  0-Au, 10-Au) :   0.3176
B(  1-Au,  2-Au) :   0.1896 B(  1-Au,  6-Au) :   0.2746 B(  1-Au,  7-Au) :   0.1758
B(  1-Au, 11-Au) :   0.1943 B(  1-Au, 16-Fe) :   0.4551 B(  2-Au,  3-Au) :   0.4604
B(  2-Au,  7-Au) :   0.2146 B(  2-Au, 11-Au) :   0.2557 B(  2-Au, 16-Fe) :   0.2958
B(  3-Au,  4-Au) :   0.3365 B(  3-Au,  7-Au) :   0.2458 B(  3-Au, 10-Au) :   0.2915
B(  3-Au, 13-Au) :   0.2341 B(  3-Au, 16-Fe) :   0.1837 B(  4-Au,  5-Au) :   0.3733
B(  4-Au,  7-Au) :   0.3380 B(  4-Au,  9-Au) :   0.2511 B(  4-Au, 10-Au) :   0.2485
B(  5-Au,  6-Au) :   0.3013 B(  5-Au,  7-Au) :   0.2762 B(  5-Au,  8-Au) :   0.2569
B(  5-Au,  9-Au) :   0.2134 B(  5-Au, 16-Fe) :   0.1229 B(  6-Au,  7-Au) :   0.1068
B(  6-Au,  8-Au) :   0.2575 B(  6-Au, 12-Au) :   0.1168 B(  6-Au, 16-Fe) :   0.4767
B(  7-Au, 16-Fe) :   0.5122 B(  8-Au,  9-Au) :   0.3337 B(  8-Au, 12-Au) :   0.3344
B(  8-Au, 14-Au) :   0.1712 B(  8-Au, 16-Fe) :   0.2005 B(  9-Au, 10-Au) :   0.2497
B(  9-Au, 14-Au) :   0.3347 B( 10-Au, 13-Au) :   0.3297 B( 10-Au, 14-Au) :   0.3571
B( 10-Au, 16-Fe) :   0.2230 B( 11-Au, 13-Au) :   0.1497 B( 11-Au, 15-Au) :   0.2391
B( 11-Au, 16-Fe) :   0.4540 B( 12-Au, 14-Au) :   0.2160 B( 12-Au, 15-Au) :   0.2241
B( 12-Au, 16-Fe) :   0.4088 B( 13-Au, 15-Au) :   0.1988 B( 13-Au, 16-Fe) :   0.5005
B( 14-Au, 15-Au) :   0.2632 B( 14-Au, 16-Fe) :   0.4780 B( 15-Au, 16-Fe) :   0.4079

FINAL SINGLE POINT ENERGY     -3436.756954926925

DIPOLE MOMENT
-------------
                                X             Y             Z
Electronic contribution:     35.76972       1.17329     -22.96319
Nuclear contribution   :    -35.86919      -1.29328      23.09945
                        -----------------------------------------
Total Dipole Moment    :     -0.09947      -0.11998       0.13625
                        -----------------------------------------
Magnitude (a.u.)       :      0.20701
Magnitude (Debye)      :      0.52618

Rotational constants in cm-1:     0.000938     0.000796     0.000699
Rotational constants in MHz :    28.122525    23.874549    20.955644

                             ****ORCA TERMINATED NORMALLY****
TOTAL RUN TIME: 0 days 6 hours 15 minutes 5 seconds 551 msec
