                         Program Version 5.0.3 -  RELEASE  -
|  1> %pal nprocs 1 end
|  2>
|  3> !PBE def2-TZVP OPT UNO
|  4> !SLOWCONV KDIIS
|  5>
|  6> %geom maxiter 300 end
|  7>
|  8> *xyzfile 0 6 6.xyz                           ****END OF INPUT****
 Total Charge           Charge          ....    0
 Multiplicity           Mult            ....    6
 Number of Electrons    NEL             ....  215
FINAL SINGLE POINT ENERGY     -2509.013047829292
FINAL SINGLE POINT ENERGY     -2509.016357546010
FINAL SINGLE POINT ENERGY     -2509.017979048904
FINAL SINGLE POINT ENERGY     -2509.019765542789
FINAL SINGLE POINT ENERGY     -2509.020500026455
FINAL SINGLE POINT ENERGY     -2509.021004713671
FINAL SINGLE POINT ENERGY     -2509.021975053919
FINAL SINGLE POINT ENERGY     -2509.023481356841
FINAL SINGLE POINT ENERGY     -2509.025246765914
FINAL SINGLE POINT ENERGY     -2509.026774705047
FINAL SINGLE POINT ENERGY     -2509.031758345076
FINAL SINGLE POINT ENERGY     -2509.031765121770
FINAL SINGLE POINT ENERGY     -2509.031770206356
FINAL SINGLE POINT ENERGY     -2509.031771968859
FINAL SINGLE POINT ENERGY     -2509.031777912237
FINAL SINGLE POINT ENERGY     -2509.031781103952
FINAL SINGLE POINT ENERGY     -2509.031783590157
FINAL SINGLE POINT ENERGY     -2509.031785242524
FINAL SINGLE POINT ENERGY     -2509.031785984598
                    ***********************HURRAY********************

CARTESIAN COORDINATES (ANGSTROEM)
---------------------------------
  Au     6.772700    6.564091    5.489250
  Au     5.550359    4.098449    6.499087
  Au     4.181592    5.651520    4.781527
  Au     4.357408    7.049726    7.054535
  Au     7.313707    3.361920    8.318957
  Au     7.860090    8.043671    9.581876
  Au    10.454133    7.453994    9.297370
  Au     9.112388    5.131655    9.086565
  Au     5.237337    8.087999    9.313997
  Au     8.845377    7.153584    6.981333
  Mn     6.676404    6.021499    8.130989

 Multiplicity           Mult            ....    6
 Number of Electrons    NEL             ....  215
 Basis Dimension        Dim             ....  445

ORBITAL ENERGIES
----------------
                 SPIN UP ORBITALS
  NO   OCC          E(Eh)            E(eV)
   0   1.0000    -234.199155     -6372.8830
   1   1.0000     -26.894754      -731.8435
   2   1.0000     -23.044970      -627.0855
   3   1.0000     -23.041974      -627.0040
   4   1.0000     -23.041790      -626.9990
   5   1.0000      -4.024507      -109.5124
   6   1.0000      -4.024216      -109.5045
   7   1.0000      -4.023826      -109.4939
   8   1.0000      -4.022802      -109.4660
   9   1.0000      -4.022454      -109.4565
  10   1.0000      -4.022165      -109.4487
  11   1.0000      -4.021936      -109.4424
  12   1.0000      -4.021122      -109.4203
  13   1.0000      -4.019933      -109.3879
  14   1.0000      -4.019624      -109.3795
  15   1.0000      -3.107528       -84.5601
  16   1.0000      -2.245064       -61.0913
  17   1.0000      -2.244663       -61.0804
  18   1.0000      -2.243521       -61.0493
  19   1.0000      -2.242739       -61.0280
  20   1.0000      -2.241706       -60.9999
  21   1.0000      -2.240672       -60.9718
  22   1.0000      -2.239865       -60.9498
  23   1.0000      -2.238299       -60.9072
  24   1.0000      -2.238263       -60.9062
  25   1.0000      -2.237582       -60.8877
  26   1.0000      -2.237246       -60.8786
  27   1.0000      -2.236525       -60.8589
  28   1.0000      -2.236382       -60.8550
  29   1.0000      -2.235744       -60.8377
  30   1.0000      -2.235234       -60.8238
  31   1.0000      -2.235006       -60.8176
  32   1.0000      -2.234782       -60.8115
  33   1.0000      -2.234284       -60.7980
  34   1.0000      -2.234083       -60.7925
  35   1.0000      -2.233737       -60.7831
  36   1.0000      -2.232941       -60.7614
  37   1.0000      -2.232647       -60.7534
  38   1.0000      -2.229159       -60.6585
  39   1.0000      -2.228846       -60.6500
  40   1.0000      -2.228428       -60.6386
  41   1.0000      -2.227821       -60.6221
  42   1.0000      -2.227653       -60.6175
  43   1.0000      -2.226354       -60.5822
  44   1.0000      -2.225766       -60.5662
  45   1.0000      -2.225334       -60.5544
  46   1.0000      -2.014280       -54.8114
  47   1.0000      -2.008085       -54.6428
  48   1.0000      -2.007955       -54.6392
  49   1.0000      -0.405629       -11.0377
  50   1.0000      -0.383330       -10.4309
  51   1.0000      -0.372003       -10.1227
  52   1.0000      -0.369643       -10.0585
  53   1.0000      -0.365778        -9.9533
  54   1.0000      -0.364027        -9.9057
  55   1.0000      -0.356870        -9.7109
  56   1.0000      -0.355002        -9.6601
  57   1.0000      -0.339309        -9.2331
  58   1.0000      -0.337186        -9.1753
  59   1.0000      -0.335472        -9.1287
  60   1.0000      -0.333221        -9.0674
  61   1.0000      -0.330553        -8.9948
  62   1.0000      -0.329774        -8.9736
  63   1.0000      -0.323623        -8.8062
  64   1.0000      -0.323334        -8.7984
  65   1.0000      -0.318781        -8.6745
  66   1.0000      -0.314599        -8.5607
  67   1.0000      -0.309738        -8.4284
  68   1.0000      -0.307130        -8.3574
  69   1.0000      -0.304672        -8.2906
  70   1.0000      -0.301387        -8.2012
  71   1.0000      -0.300518        -8.1775
  72   1.0000      -0.295136        -8.0311
  73   1.0000      -0.293369        -7.9830
  74   1.0000      -0.292092        -7.9482
  75   1.0000      -0.289772        -7.8851
  76   1.0000      -0.287966        -7.8360
  77   1.0000      -0.286691        -7.8013
  78   1.0000      -0.284878        -7.7519
  79   1.0000      -0.283313        -7.7093
  80   1.0000      -0.282189        -7.6788
  81   1.0000      -0.280347        -7.6286
  82   1.0000      -0.275542        -7.4979
  83   1.0000      -0.273155        -7.4329
  84   1.0000      -0.271375        -7.3845
  85   1.0000      -0.270309        -7.3555
  86   1.0000      -0.267476        -7.2784
  87   1.0000      -0.267339        -7.2747
  88   1.0000      -0.265275        -7.2185
  89   1.0000      -0.262195        -7.1347
  90   1.0000      -0.260964        -7.1012
  91   1.0000      -0.259281        -7.0554
  92   1.0000      -0.258443        -7.0326
  93   1.0000      -0.257438        -7.0052
  94   1.0000      -0.256916        -6.9910
  95   1.0000      -0.255313        -6.9474
  96   1.0000      -0.254411        -6.9229
  97   1.0000      -0.252827        -6.8798
  98   1.0000      -0.250217        -6.8088
  99   1.0000      -0.249648        -6.7933
 100   1.0000      -0.246859        -6.7174
 101   1.0000      -0.244390        -6.6502
 102   1.0000      -0.242236        -6.5916
 103   1.0000      -0.240396        -6.5415
 104   1.0000      -0.237709        -6.4684
 105   1.0000      -0.231863        -6.3093
 106   1.0000      -0.231061        -6.2875
 107   1.0000      -0.229562        -6.2467
 108   1.0000      -0.208996        -5.6871
 109   1.0000      -0.180384        -4.9085
 110   0.0000      -0.172303        -4.6886
 111   0.0000      -0.137235        -3.7344
 112   0.0000      -0.135094        -3.6761
 113   0.0000      -0.131868        -3.5883
 114   0.0000      -0.095904        -2.6097

                 SPIN DOWN ORBITALS
  NO   OCC          E(Eh)            E(eV)
   0   1.0000    -234.198388     -6372.8621
   1   1.0000     -26.826187      -729.9777
   2   1.0000     -22.992175      -625.6489
   3   1.0000     -22.990345      -625.5991
   4   1.0000     -22.989968      -625.5888
   5   1.0000      -4.024324      -109.5074
   6   1.0000      -4.024035      -109.4996
   7   1.0000      -4.023123      -109.4747
   8   1.0000      -4.021625      -109.4340
   9   1.0000      -4.021283      -109.4247
  10   1.0000      -4.021095      -109.4196
  11   1.0000      -4.020868      -109.4134
  12   1.0000      -4.020085      -109.3921
  13   1.0000      -4.018788      -109.3568
  14   1.0000      -4.018475      -109.3483
  15   1.0000      -2.938625       -79.9640
  16   1.0000      -2.244405       -61.0734
  17   1.0000      -2.243864       -61.0586
  18   1.0000      -2.242386       -61.0184
  19   1.0000      -2.242070       -61.0098
  20   1.0000      -2.240858       -60.9769
  21   1.0000      -2.239982       -60.9530
  22   1.0000      -2.238845       -60.9221
  23   1.0000      -2.237288       -60.8797
  24   1.0000      -2.237104       -60.8747
  25   1.0000      -2.236597       -60.8609
  26   1.0000      -2.235754       -60.8379
  27   1.0000      -2.235693       -60.8363
  28   1.0000      -2.235326       -60.8263
  29   1.0000      -2.235020       -60.8180
  30   1.0000      -2.234409       -60.8014
  31   1.0000      -2.234043       -60.7914
  32   1.0000      -2.233722       -60.7827
  33   1.0000      -2.233484       -60.7762
  34   1.0000      -2.233255       -60.7700
  35   1.0000      -2.232755       -60.7563
  36   1.0000      -2.231422       -60.7201
  37   1.0000      -2.231144       -60.7125
  38   1.0000      -2.228394       -60.6377
  39   1.0000      -2.227919       -60.6248
  40   1.0000      -2.227480       -60.6128
  41   1.0000      -2.226905       -60.5972
  42   1.0000      -2.226746       -60.5928
  43   1.0000      -2.225417       -60.5567
  44   1.0000      -2.224784       -60.5394
  45   1.0000      -2.224376       -60.5284
  46   1.0000      -1.846061       -50.2339
  47   1.0000      -1.843936       -50.1760
  48   1.0000      -1.842647       -50.1410
  49   1.0000      -0.400947       -10.9103
  50   1.0000      -0.382045       -10.3960
  51   1.0000      -0.368534       -10.0283
  52   1.0000      -0.364260        -9.9120
  53   1.0000      -0.362036        -9.8515
  54   1.0000      -0.360414        -9.8074
  55   1.0000      -0.351860        -9.5746
  56   1.0000      -0.350118        -9.5272
  57   1.0000      -0.334513        -9.1025
  58   1.0000      -0.329967        -8.9789
  59   1.0000      -0.328894        -8.9496
  60   1.0000      -0.328137        -8.9291
  61   1.0000      -0.324459        -8.8290
  62   1.0000      -0.323380        -8.7996
  63   1.0000      -0.315636        -8.5889
  64   1.0000      -0.313950        -8.5430
  65   1.0000      -0.312882        -8.5140
  66   1.0000      -0.308398        -8.3919
  67   1.0000      -0.305291        -8.3074
  68   1.0000      -0.304589        -8.2883
  69   1.0000      -0.299483        -8.1493
  70   1.0000      -0.299417        -8.1476
  71   1.0000      -0.294360        -8.0099
  72   1.0000      -0.292218        -7.9517
  73   1.0000      -0.291039        -7.9196
  74   1.0000      -0.290864        -7.9148
  75   1.0000      -0.287013        -7.8100
  76   1.0000      -0.286421        -7.7939
  77   1.0000      -0.285977        -7.7818
  78   1.0000      -0.281957        -7.6725
  79   1.0000      -0.279754        -7.6125
  80   1.0000      -0.278250        -7.5716
  81   1.0000      -0.274459        -7.4684
  82   1.0000      -0.272839        -7.4243
  83   1.0000      -0.269444        -7.3319
  84   1.0000      -0.267066        -7.2672
  85   1.0000      -0.266396        -7.2490
  86   1.0000      -0.265761        -7.2317
  87   1.0000      -0.264556        -7.1989
  88   1.0000      -0.263614        -7.1733
  89   1.0000      -0.259192        -7.0530
  90   1.0000      -0.258822        -7.0429
  91   1.0000      -0.257431        -7.0051
  92   1.0000      -0.256444        -6.9782
  93   1.0000      -0.255764        -6.9597
  94   1.0000      -0.254446        -6.9238
  95   1.0000      -0.253996        -6.9116
  96   1.0000      -0.248338        -6.7576
  97   1.0000      -0.247319        -6.7299
  98   1.0000      -0.245159        -6.6711
  99   1.0000      -0.242049        -6.5865
 100   1.0000      -0.236149        -6.4259
 101   1.0000      -0.232440        -6.3250
 102   1.0000      -0.231438        -6.2977
 103   1.0000      -0.214795        -5.8449
 104   1.0000      -0.193135        -5.2555
 105   0.0000      -0.173589        -4.7236
 106   0.0000      -0.142299        -3.8721
 107   0.0000      -0.142239        -3.8705
 108   0.0000      -0.140162        -3.8140
 109   0.0000      -0.126761        -3.4493

MULLIKEN ATOMIC CHARGES AND SPIN POPULATIONS
--------------------------------------------
   0 Au:   -0.000762    0.034212
   1 Au:   -0.084509    0.109971
   2 Au:    0.441755    0.034868
   3 Au:   -0.093960    0.067473
   4 Au:    0.200645    0.041757
   5 Au:   -0.093070    0.066760
   6 Au:    0.444892    0.035716
   7 Au:   -0.082120    0.108859
   8 Au:    0.233993    0.026010
   9 Au:   -0.004055    0.033936
  10 Mn:   -0.962809    4.440437
Sum of atomic charges         :   -0.0000000

LOEWDIN ATOMIC CHARGES AND SPIN POPULATIONS
-------------------------------------------
   0 Au:   -0.003785    0.052634
   1 Au:   -0.039615    0.091003
   2 Au:    0.101821    0.042870
   3 Au:   -0.038148    0.069083
   4 Au:    0.094456    0.060756
   5 Au:   -0.039041    0.069018
   6 Au:    0.103824    0.043208
   7 Au:   -0.040388    0.090554
   8 Au:    0.107167    0.027736
   9 Au:   -0.003593    0.052174
  10 Mn:   -0.242697    4.400964

  Mayer bond orders larger than 0.100000
B(  0-Au,  1-Au) :   0.2012 B(  0-Au,  2-Au) :   0.2574 B(  0-Au,  3-Au) :   0.2034
B(  0-Au,  9-Au) :   0.6850 B(  0-Au, 10-Mn) :   0.4929 B(  1-Au,  2-Au) :   0.3755
B(  1-Au,  3-Au) :   0.1251 B(  1-Au,  4-Au) :   0.4397 B(  1-Au, 10-Mn) :   0.4979
B(  2-Au,  3-Au) :   0.4087 B(  3-Au,  8-Au) :   0.4396 B(  3-Au, 10-Mn) :   0.5054
B(  4-Au,  7-Au) :   0.4432 B(  4-Au, 10-Mn) :   0.5122 B(  5-Au,  6-Au) :   0.4076
B(  5-Au,  7-Au) :   0.1267 B(  5-Au,  8-Au) :   0.4430 B(  5-Au,  9-Au) :   0.2034
B(  5-Au, 10-Mn) :   0.5042 B(  6-Au,  7-Au) :   0.3751 B(  6-Au,  9-Au) :   0.2572
B(  7-Au,  9-Au) :   0.2020 B(  7-Au, 10-Mn) :   0.4952 B(  8-Au, 10-Mn) :   0.4586
B(  9-Au, 10-Mn) :   0.4922

FINAL SINGLE POINT ENERGY     -2509.031786364073

DIPOLE MOMENT
-------------
                                X             Y             Z
Electronic contribution:     10.63005       8.76492     -17.87708
Nuclear contribution   :    -10.57947      -8.62573      17.76632
                        -----------------------------------------
Total Dipole Moment    :      0.05058       0.13919      -0.11076
                        -----------------------------------------
Magnitude (a.u.)       :      0.18493
Magnitude (Debye)      :      0.47005

Rotational constants in cm-1:     0.002321     0.001265     0.001081
Rotational constants in MHz :    69.593545    37.921419    32.413894

                             ****ORCA TERMINATED NORMALLY****
TOTAL RUN TIME: 0 days 6 hours 6 minutes 13 seconds 36 msec
