                         Program Version 5.0.3 -  RELEASE  -
|  1> !SC-NEVPT2 def2-TZVP def2-TZVP/C
|  2> !MOREAD RIJCOSX def2/J
|  3> %maxcore 4000
|  4> %moinp "casscf.gbw"
|  5> %pal nprocs 6 end
|  6>
|  7> %casscf
|  8>  mult 6,4
|  9>  bweight 1,1
| 10>  nroots 1,24
| 11>  nel 5
| 12>  norb 5
| 13>  ptsettings
| 14>   d4tpre 1e-14 # default = 1e-10
| 15>   d3tpre 1e-14
| 16>  end
| 17>  rel
| 18>    dosoc true
| 19>    gtensor true
| 20>  end
| 21> end
| 22>
| 23>
| 24> *xyzfile 0 6 pbe.xyz
| 25>
| 26>
| 27>                          ****END OF INPUT****

CARTESIAN COORDINATES (ANGSTROEM)
---------------------------------
  Au     7.405617    5.697053    5.831257
  Au     7.625696    8.325093    6.799858
  Au     8.050550    5.137461   10.495800
  Au     8.077472    4.011553    8.115388
  Au     6.972625    3.066703    5.741064
  Au     5.305213    4.498749    7.448909
  Au     8.148002    7.659396    4.254384
  Au     4.638091    5.742551    9.670412
  Au     6.349767    7.169350   11.325109
  Au     7.109911    8.904426    9.319408
  Mn     6.891586    6.441369    8.561504

 Total Charge           Charge          ....    0
 Multiplicity           Mult            ....    6
 Number of Electrons    NEL             ....  215
 Basis Dimension        Dim             ....  445

ORBITAL ENERGIES
----------------

  NO   OCC          E(Eh)            E(eV)
   0   2.0000    -240.541816     -6545.4756
   1   2.0000     -29.120703      -792.4146
   2   2.0000     -24.825484      -675.5358
   3   2.0000     -24.825406      -675.5336
   4   2.0000     -24.824771      -675.5164
   5   2.0000      -4.723152      -128.5235
   6   2.0000      -4.714883      -128.2985
   7   2.0000      -4.714654      -128.2923
   8   2.0000      -4.713498      -128.2608
   9   2.0000      -4.711342      -128.2021
  10   2.0000      -4.701865      -127.9443
  11   2.0000      -4.701444      -127.9328
  12   2.0000      -4.700974      -127.9200
  13   2.0000      -4.697186      -127.8169
  14   2.0000      -4.693231      -127.7093
  15   2.0000      -3.825993      -104.1106
  16   2.0000      -2.764728       -75.2321
  17   2.0000      -2.759715       -75.0957
  18   2.0000      -2.755437       -74.9793
  19   2.0000      -2.755158       -74.9717
  20   2.0000      -2.754189       -74.9453
  21   2.0000      -2.752875       -74.9095
  22   2.0000      -2.751466       -74.8712
  23   2.0000      -2.750365       -74.8412
  24   2.0000      -2.749537       -74.8187
  25   2.0000      -2.747740       -74.7698
  26   2.0000      -2.747051       -74.7511
  27   2.0000      -2.746912       -74.7473
  28   2.0000      -2.746273       -74.7299
  29   2.0000      -2.745572       -74.7108
  30   2.0000      -2.741512       -74.6003
  31   2.0000      -2.740521       -74.5734
  32   2.0000      -2.740035       -74.5601
  33   2.0000      -2.739555       -74.5471
  34   2.0000      -2.736975       -74.4769
  35   2.0000      -2.736511       -74.4643
  36   2.0000      -2.736490       -74.4637
  37   2.0000      -2.734535       -74.4105
  38   2.0000      -2.733322       -74.3775
  39   2.0000      -2.732874       -74.3653
  40   2.0000      -2.731834       -74.3370
  41   2.0000      -2.731674       -74.3326
  42   2.0000      -2.729253       -74.2667
  43   2.0000      -2.728171       -74.2373
  44   2.0000      -2.726288       -74.1861
  45   2.0000      -2.726033       -74.1791
  46   2.0000      -2.494139       -67.8690
  47   2.0000      -2.492696       -67.8297
  48   2.0000      -2.492460       -67.8233
  49   2.0000      -0.574722       -15.6390
  50   2.0000      -0.557228       -15.1630
  51   2.0000      -0.547601       -14.9010
  52   2.0000      -0.542356       -14.7583
  53   2.0000      -0.540891       -14.7184
  54   2.0000      -0.536132       -14.5889
  55   2.0000      -0.530687       -14.4407
  56   2.0000      -0.526976       -14.3397
  57   2.0000      -0.521061       -14.1788
  58   2.0000      -0.515239       -14.0204
  59   2.0000      -0.513529       -13.9738
  60   2.0000      -0.512687       -13.9509
  61   2.0000      -0.506629       -13.7861
  62   2.0000      -0.506255       -13.7759
  63   2.0000      -0.504194       -13.7198
  64   2.0000      -0.498733       -13.5712
  65   2.0000      -0.493402       -13.4262
  66   2.0000      -0.490488       -13.3469
  67   2.0000      -0.489471       -13.3192
  68   2.0000      -0.487778       -13.2731
  69   2.0000      -0.484706       -13.1895
  70   2.0000      -0.476986       -12.9795
  71   2.0000      -0.475383       -12.9358
  72   2.0000      -0.474530       -12.9126
  73   2.0000      -0.468517       -12.7490
  74   2.0000      -0.465213       -12.6591
  75   2.0000      -0.464527       -12.6404
  76   2.0000      -0.461894       -12.5688
  77   2.0000      -0.458494       -12.4763
  78   2.0000      -0.457434       -12.4474
  79   2.0000      -0.455777       -12.4023
  80   2.0000      -0.451928       -12.2976
  81   2.0000      -0.451548       -12.2872
  82   2.0000      -0.449401       -12.2288
  83   2.0000      -0.448233       -12.1970
  84   2.0000      -0.444721       -12.1015
  85   2.0000      -0.444543       -12.0966
  86   2.0000      -0.443093       -12.0572
  87   2.0000      -0.439988       -11.9727
  88   2.0000      -0.436193       -11.8694
  89   2.0000      -0.434543       -11.8245
  90   2.0000      -0.431959       -11.7542
  91   2.0000      -0.425256       -11.5718
  92   2.0000      -0.422655       -11.5010
  93   2.0000      -0.419998       -11.4287
  94   2.0000      -0.416573       -11.3355
  95   2.0000      -0.413347       -11.2477
  96   2.0000      -0.409624       -11.1464
  97   2.0000      -0.407567       -11.0905
  98   2.0000      -0.401052       -10.9132
  99   2.0000      -0.389423       -10.5967
 100   2.0000      -0.356594        -9.7034
 101   2.0000      -0.345138        -9.3917
 102   2.0000      -0.273859        -7.4521
 103   2.0000      -0.261792        -7.1237
 104   2.0000      -0.229490        -6.2448
 105   1.0000      -0.143317        -3.8998
 106   1.0000      -0.142784        -3.8854
 107   1.0000      -0.141600        -3.8531
 108   1.0000      -0.148364        -4.0372
 109   1.0000      -0.144455        -3.9308
 110   0.0000      -0.025007        -0.6805
 111   0.0000      -0.010636        -0.2894
 112   0.0000       0.002415         0.0657
 113   0.0000       0.013578         0.3695
 114   0.0000       0.028138         0.7657

MULLIKEN ATOMIC CHARGES AND SPIN DENSITIES
------------------------------------------
   0 Au:   -0.860884    0.007470
   1 Au:   -0.217372    0.011585
   2 Au:    0.208784    0.012026
   3 Au:   -0.004404    0.009289
   4 Au:    0.535553    0.002938
   5 Au:   -0.008346    0.009196
   6 Au:    0.534920    0.002654
   7 Au:    0.207191    0.012005
   8 Au:    0.104130    0.006616
   9 Au:    0.276962    0.011606
  10 Mn:   -0.776534    3.914613
Sum of atomic charges       :    0.0000000

LOEWDIN ATOMIC CHARGES AND SPIN DENSITIES
-----------------------------------------
   0 Au:   -0.223696    0.012948
   1 Au:   -0.077850    0.015972
   2 Au:    0.017743    0.017175
   3 Au:   -0.044330    0.012769
   4 Au:    0.185152    0.004020
   5 Au:   -0.045671    0.012697
   6 Au:    0.158888    0.003796
   7 Au:    0.015913    0.017143
   8 Au:   -0.027224    0.010504
   9 Au:    0.028567    0.017010
  10 Mn:    0.012507    3.875967

  Mayer bond orders larger than 0.100000
B(  0-Au,  1-Au) :   0.4933 B(  0-Au,  3-Au) :   0.2527 B(  0-Au,  4-Au) :   0.4655
B(  0-Au,  5-Au) :   0.2546 B(  0-Au,  6-Au) :   0.5944 B(  0-Au, 10-Mn) :   0.1886
B(  1-Au,  6-Au) :   0.2724 B(  1-Au,  9-Au) :   0.4926 B(  1-Au, 10-Mn) :   0.5446
B(  2-Au,  3-Au) :   0.5485 B(  2-Au,  8-Au) :   0.2011 B(  2-Au, 10-Mn) :   0.4715
B(  3-Au,  4-Au) :   0.1803 B(  3-Au,  5-Au) :   0.1178 B(  3-Au, 10-Mn) :   0.4929
B(  4-Au,  5-Au) :   0.1799 B(  5-Au,  7-Au) :   0.5527 B(  5-Au, 10-Mn) :   0.4888
B(  7-Au,  8-Au) :   0.2030 B(  7-Au, 10-Mn) :   0.4675 B(  8-Au,  9-Au) :   0.2125
B(  8-Au, 10-Mn) :   0.3538 B(  9-Au, 10-Mn) :   0.4814

FINAL SINGLE POINT ENERGY     -2502.906478726909

DIPOLE MOMENT
-------------
                                X             Y             Z
Electronic contribution:      2.86710     -15.67092     -24.60746
Nuclear contribution   :     -2.77823      15.21648      23.95259
                        -----------------------------------------
Total Dipole Moment    :      0.08886      -0.45445      -0.65488
                        -----------------------------------------
Magnitude (a.u.)       :      0.80205
Magnitude (Debye)      :      2.03865

Rotational constants in cm-1:     0.001937     0.001414     0.001023
Rotational constants in MHz :    58.079822    42.397457    30.678600

                             ****ORCA TERMINATED NORMALLY****
TOTAL RUN TIME: 0 days 0 hours 41 minutes 54 seconds 74 msec
