                         Program Version 5.0.3 -  RELEASE  -
|  1> %pal nprocs 16 end
|  2>
|  3> !PBE def2-TZVP OPT UNO
|  4> !SLOWCONV
|  5>
|  6> *xyzfile 0 5 9-2.xyz
|  7>
|  8>                          ****END OF INPUT****
 Total Charge           Charge          ....    0
 Multiplicity           Mult            ....    5
 Number of Electrons    NEL             ....  310
FINAL SINGLE POINT ENERGY     -3188.221475320719
FINAL SINGLE POINT ENERGY     -3188.221505221590
FINAL SINGLE POINT ENERGY     -3188.221608185388
FINAL SINGLE POINT ENERGY     -3188.221681724312
FINAL SINGLE POINT ENERGY     -3188.221759391165
FINAL SINGLE POINT ENERGY     -3188.221848404463
FINAL SINGLE POINT ENERGY     -3188.221910111984
FINAL SINGLE POINT ENERGY     -3188.221964820736
FINAL SINGLE POINT ENERGY     -3188.221999879703
FINAL SINGLE POINT ENERGY     -3188.222015785429
                    ***********************HURRAY********************

CARTESIAN COORDINATES (ANGSTROEM)
---------------------------------
  Au     4.310302    7.489628    8.610802
  Au     8.513817   10.197379    9.465367
  Au     5.828721    9.417021    9.979859
  Au    10.212659    7.839533    9.849723
  Au     8.395003    5.698801    9.937420
  Au     7.935100    8.238759   11.341135
  Au     5.840047    6.575416   10.711958
  Au     6.150383    5.314160    8.273241
  Au     5.756908    7.224355    6.228400
  Au     7.745301    5.288331    6.024080
  Au     8.421337    7.967584    5.689907
  Au     7.806606   10.440047    6.752554
  Au    10.204183    9.201512    7.454314
  Au     9.774092    6.355019    7.563277
  Au     5.244219    9.735799    7.250792
  Mn     7.475045    7.863997    8.375869

 Multiplicity           Mult            ....    5
 Number of Electrons    NEL             ....  310
 Basis Dimension        Dim             ....  645

ORBITAL ENERGIES
----------------
                 SPIN UP ORBITALS
  NO   OCC          E(Eh)            E(eV)
   0   1.0000    -234.211918     -6373.2303
   1   1.0000     -26.904259      -732.1021
   2   1.0000     -23.052751      -627.2973
   3   1.0000     -23.052611      -627.2934
   4   1.0000     -23.052495      -627.2903
   5   1.0000      -4.037684      -109.8710
   6   1.0000      -4.036604      -109.8416
   7   1.0000      -4.033381      -109.7539
   8   1.0000      -4.033360      -109.7533
   9   1.0000      -4.033260      -109.7506
  10   1.0000      -4.033065      -109.7453
  11   1.0000      -4.032939      -109.7418
  12   1.0000      -4.030798      -109.6836
  13   1.0000      -4.029391      -109.6453
  14   1.0000      -4.028932      -109.6328
  15   1.0000      -4.026509      -109.5669
  16   1.0000      -4.026416      -109.5644
  17   1.0000      -4.026279      -109.5606
  18   1.0000      -4.025521      -109.5400
  19   1.0000      -4.025241      -109.5324
  20   1.0000      -3.116794       -84.8123
  21   1.0000      -2.253075       -61.3093
  22   1.0000      -2.251642       -61.2703
  23   1.0000      -2.250836       -61.2484
  24   1.0000      -2.249807       -61.2204
  25   1.0000      -2.249726       -61.2181
  26   1.0000      -2.249561       -61.2137
  27   1.0000      -2.249219       -61.2044
  28   1.0000      -2.248706       -61.1904
  29   1.0000      -2.248628       -61.1883
  30   1.0000      -2.247366       -61.1539
  31   1.0000      -2.246674       -61.1351
  32   1.0000      -2.246510       -61.1307
  33   1.0000      -2.246256       -61.1237
  34   1.0000      -2.245908       -61.1143
  35   1.0000      -2.245875       -61.1134
  36   1.0000      -2.245802       -61.1114
  37   1.0000      -2.245609       -61.1061
  38   1.0000      -2.245302       -61.0978
  39   1.0000      -2.245015       -61.0900
  40   1.0000      -2.244492       -61.0757
  41   1.0000      -2.244002       -61.0624
  42   1.0000      -2.243622       -61.0521
  43   1.0000      -2.243434       -61.0469
  44   1.0000      -2.243148       -61.0392
  45   1.0000      -2.243109       -61.0381
  46   1.0000      -2.242328       -61.0168
  47   1.0000      -2.242036       -61.0089
  48   1.0000      -2.241490       -60.9940
  49   1.0000      -2.240985       -60.9803
  50   1.0000      -2.240814       -60.9757
  51   1.0000      -2.240525       -60.9678
  52   1.0000      -2.240236       -60.9599
  53   1.0000      -2.239728       -60.9461
  54   1.0000      -2.239465       -60.9389
  55   1.0000      -2.239262       -60.9334
  56   1.0000      -2.238792       -60.9206
  57   1.0000      -2.238616       -60.9158
  58   1.0000      -2.238184       -60.9041
  59   1.0000      -2.238097       -60.9017
  60   1.0000      -2.237341       -60.8812
  61   1.0000      -2.237231       -60.8782
  62   1.0000      -2.237078       -60.8740
  63   1.0000      -2.236757       -60.8652
  64   1.0000      -2.236655       -60.8625
  65   1.0000      -2.235500       -60.8311
  66   1.0000      -2.019826       -54.9623
  67   1.0000      -2.019679       -54.9583
  68   1.0000      -2.018836       -54.9353
  69   1.0000      -0.437852       -11.9146
  70   1.0000      -0.394682       -10.7399
  71   1.0000      -0.393952       -10.7200
  72   1.0000      -0.384941       -10.4748
  73   1.0000      -0.380774       -10.3614
  74   1.0000      -0.376952       -10.2574
  75   1.0000      -0.372426       -10.1342
  76   1.0000      -0.371451       -10.1077
  77   1.0000      -0.369900       -10.0655
  78   1.0000      -0.366174        -9.9641
  79   1.0000      -0.360934        -9.8215
  80   1.0000      -0.360712        -9.8155
  81   1.0000      -0.357482        -9.7276
  82   1.0000      -0.356788        -9.7087
  83   1.0000      -0.356280        -9.6949
  84   1.0000      -0.355556        -9.6752
  85   1.0000      -0.353753        -9.6261
  86   1.0000      -0.353564        -9.6210
  87   1.0000      -0.352660        -9.5964
  88   1.0000      -0.350522        -9.5382
  89   1.0000      -0.345819        -9.4102
  90   1.0000      -0.345604        -9.4044
  91   1.0000      -0.343129        -9.3370
  92   1.0000      -0.342504        -9.3200
  93   1.0000      -0.339807        -9.2466
  94   1.0000      -0.336649        -9.1607
  95   1.0000      -0.335369        -9.1259
  96   1.0000      -0.332174        -9.0389
  97   1.0000      -0.331023        -9.0076
  98   1.0000      -0.327521        -8.9123
  99   1.0000      -0.326984        -8.8977
 100   1.0000      -0.319967        -8.7067
 101   1.0000      -0.317495        -8.6395
 102   1.0000      -0.316931        -8.6241
 103   1.0000      -0.315461        -8.5841
 104   1.0000      -0.313775        -8.5383
 105   1.0000      -0.313025        -8.5178
 106   1.0000      -0.305504        -8.3132
 107   1.0000      -0.304867        -8.2958
 108   1.0000      -0.304019        -8.2728
 109   1.0000      -0.303375        -8.2552
 110   1.0000      -0.295758        -8.0480
 111   1.0000      -0.295238        -8.0338
 112   1.0000      -0.293525        -7.9872
 113   1.0000      -0.290731        -7.9112
 114   1.0000      -0.286490        -7.7958
 115   1.0000      -0.284346        -7.7375
 116   1.0000      -0.282704        -7.6928
 117   1.0000      -0.282212        -7.6794
 118   1.0000      -0.279706        -7.6112
 119   1.0000      -0.277526        -7.5519
 120   1.0000      -0.276899        -7.5348
 121   1.0000      -0.274241        -7.4625
 122   1.0000      -0.272464        -7.4141
 123   1.0000      -0.271449        -7.3865
 124   1.0000      -0.270569        -7.3626
 125   1.0000      -0.268591        -7.3087
 126   1.0000      -0.266818        -7.2605
 127   1.0000      -0.265834        -7.2337
 128   1.0000      -0.265401        -7.2219
 129   1.0000      -0.263582        -7.1724
 130   1.0000      -0.262599        -7.1457
 131   1.0000      -0.261038        -7.1032
 132   1.0000      -0.260723        -7.0946
 133   1.0000      -0.260105        -7.0778
 134   1.0000      -0.259043        -7.0489
 135   1.0000      -0.258631        -7.0377
 136   1.0000      -0.257484        -7.0065
 137   1.0000      -0.256957        -6.9922
 138   1.0000      -0.255975        -6.9654
 139   1.0000      -0.255521        -6.9531
 140   1.0000      -0.254640        -6.9291
 141   1.0000      -0.253004        -6.8846
 142   1.0000      -0.252482        -6.8704
 143   1.0000      -0.251242        -6.8366
 144   1.0000      -0.250853        -6.8260
 145   1.0000      -0.250475        -6.8158
 146   1.0000      -0.248610        -6.7650
 147   1.0000      -0.247913        -6.7461
 148   1.0000      -0.246676        -6.7124
 149   1.0000      -0.245489        -6.6801
 150   1.0000      -0.242708        -6.6044
 151   1.0000      -0.235832        -6.4173
 152   1.0000      -0.233280        -6.3479
 153   1.0000      -0.219172        -5.9640
 154   1.0000      -0.213932        -5.8214
 155   1.0000      -0.205634        -5.5956
 156   1.0000      -0.202224        -5.5028
 157   0.0000      -0.193567        -5.2672
 158   0.0000      -0.153289        -4.1712
 159   0.0000      -0.130308        -3.5458
 160   0.0000      -0.128499        -3.4966
 161   0.0000      -0.126619        -3.4455

                 SPIN DOWN ORBITALS
  NO   OCC          E(Eh)            E(eV)
   0   1.0000    -234.211228     -6373.2115
   1   1.0000     -26.835837      -730.2402
   2   1.0000     -23.001145      -625.8930
   3   1.0000     -23.001019      -625.8896
   4   1.0000     -22.999885      -625.8587
   5   1.0000      -4.037593      -109.8685
   6   1.0000      -4.036545      -109.8400
   7   1.0000      -4.033286      -109.7513
   8   1.0000      -4.033123      -109.7468
   9   1.0000      -4.033012      -109.7438
  10   1.0000      -4.032830      -109.7389
  11   1.0000      -4.032494      -109.7298
  12   1.0000      -4.030361      -109.6717
  13   1.0000      -4.029555      -109.6498
  14   1.0000      -4.029104      -109.6375
  15   1.0000      -4.027256      -109.5872
  16   1.0000      -4.026509      -109.5669
  17   1.0000      -4.026378      -109.5633
  18   1.0000      -4.025803      -109.5477
  19   1.0000      -4.025599      -109.5421
  20   1.0000      -2.948498       -80.2327
  21   1.0000      -2.253187       -61.3123
  22   1.0000      -2.251672       -61.2711
  23   1.0000      -2.250304       -61.2339
  24   1.0000      -2.249720       -61.2180
  25   1.0000      -2.249582       -61.2142
  26   1.0000      -2.249474       -61.2113
  27   1.0000      -2.249281       -61.2061
  28   1.0000      -2.248448       -61.1834
  29   1.0000      -2.248429       -61.1829
  30   1.0000      -2.247465       -61.1566
  31   1.0000      -2.246293       -61.1247
  32   1.0000      -2.246001       -61.1168
  33   1.0000      -2.245801       -61.1114
  34   1.0000      -2.245714       -61.1090
  35   1.0000      -2.245658       -61.1075
  36   1.0000      -2.245375       -61.0998
  37   1.0000      -2.245298       -61.0977
  38   1.0000      -2.244950       -61.0882
  39   1.0000      -2.244898       -61.0868
  40   1.0000      -2.244360       -61.0721
  41   1.0000      -2.244033       -61.0632
  42   1.0000      -2.243455       -61.0475
  43   1.0000      -2.243311       -61.0436
  44   1.0000      -2.243080       -61.0373
  45   1.0000      -2.242922       -61.0330
  46   1.0000      -2.242375       -61.0181
  47   1.0000      -2.242059       -61.0095
  48   1.0000      -2.241730       -61.0006
  49   1.0000      -2.241646       -60.9983
  50   1.0000      -2.241023       -60.9813
  51   1.0000      -2.240852       -60.9767
  52   1.0000      -2.240282       -60.9612
  53   1.0000      -2.239786       -60.9477
  54   1.0000      -2.239693       -60.9451
  55   1.0000      -2.239313       -60.9348
  56   1.0000      -2.239003       -60.9264
  57   1.0000      -2.238835       -60.9218
  58   1.0000      -2.238699       -60.9181
  59   1.0000      -2.238485       -60.9123
  60   1.0000      -2.238148       -60.9031
  61   1.0000      -2.237283       -60.8796
  62   1.0000      -2.237213       -60.8777
  63   1.0000      -2.236926       -60.8698
  64   1.0000      -2.236786       -60.8660
  65   1.0000      -2.235714       -60.8369
  66   1.0000      -1.855167       -50.4817
  67   1.0000      -1.854749       -50.4703
  68   1.0000      -1.852535       -50.4100
  69   1.0000      -0.431920       -11.7531
  70   1.0000      -0.393693       -10.7129
  71   1.0000      -0.393566       -10.7095
  72   1.0000      -0.384393       -10.4599
  73   1.0000      -0.374375       -10.1873
  74   1.0000      -0.371236       -10.1018
  75   1.0000      -0.369816       -10.0632
  76   1.0000      -0.367667       -10.0047
  77   1.0000      -0.365992        -9.9591
  78   1.0000      -0.362641        -9.8680
  79   1.0000      -0.361082        -9.8256
  80   1.0000      -0.360649        -9.8138
  81   1.0000      -0.357942        -9.7401
  82   1.0000      -0.356641        -9.7047
  83   1.0000      -0.355711        -9.6794
  84   1.0000      -0.355413        -9.6713
  85   1.0000      -0.353144        -9.6095
  86   1.0000      -0.352584        -9.5943
  87   1.0000      -0.352266        -9.5856
  88   1.0000      -0.347404        -9.4534
  89   1.0000      -0.345728        -9.4077
  90   1.0000      -0.345550        -9.4029
  91   1.0000      -0.343171        -9.3382
  92   1.0000      -0.342795        -9.3279
  93   1.0000      -0.339912        -9.2495
  94   1.0000      -0.335630        -9.1329
  95   1.0000      -0.333255        -9.0683
  96   1.0000      -0.329919        -8.9776
  97   1.0000      -0.326481        -8.8840
  98   1.0000      -0.326239        -8.8774
  99   1.0000      -0.325097        -8.8463
 100   1.0000      -0.317516        -8.6400
 101   1.0000      -0.315880        -8.5955
 102   1.0000      -0.314688        -8.5631
 103   1.0000      -0.313324        -8.5260
 104   1.0000      -0.312798        -8.5117
 105   1.0000      -0.307371        -8.3640
 106   1.0000      -0.305358        -8.3092
 107   1.0000      -0.303405        -8.2561
 108   1.0000      -0.302601        -8.2342
 109   1.0000      -0.295681        -8.0459
 110   1.0000      -0.294645        -8.0177
 111   1.0000      -0.294455        -8.0125
 112   1.0000      -0.292572        -7.9613
 113   1.0000      -0.287390        -7.8203
 114   1.0000      -0.283772        -7.7218
 115   1.0000      -0.282188        -7.6787
 116   1.0000      -0.279684        -7.6106
 117   1.0000      -0.279468        -7.6047
 118   1.0000      -0.278184        -7.5698
 119   1.0000      -0.277009        -7.5378
 120   1.0000      -0.276006        -7.5105
 121   1.0000      -0.273715        -7.4482
 122   1.0000      -0.272233        -7.4078
 123   1.0000      -0.271376        -7.3845
 124   1.0000      -0.270309        -7.3555
 125   1.0000      -0.268450        -7.3049
 126   1.0000      -0.265889        -7.2352
 127   1.0000      -0.264781        -7.2051
 128   1.0000      -0.263608        -7.1731
 129   1.0000      -0.260597        -7.0912
 130   1.0000      -0.260269        -7.0823
 131   1.0000      -0.259441        -7.0597
 132   1.0000      -0.258186        -7.0256
 133   1.0000      -0.257507        -7.0071
 134   1.0000      -0.257486        -7.0065
 135   1.0000      -0.256422        -6.9776
 136   1.0000      -0.256052        -6.9675
 137   1.0000      -0.255577        -6.9546
 138   1.0000      -0.253196        -6.8898
 139   1.0000      -0.251216        -6.8359
 140   1.0000      -0.251049        -6.8314
 141   1.0000      -0.248924        -6.7736
 142   1.0000      -0.248206        -6.7540
 143   1.0000      -0.246781        -6.7153
 144   1.0000      -0.246041        -6.6951
 145   1.0000      -0.243873        -6.6361
 146   1.0000      -0.236612        -6.4386
 147   1.0000      -0.233551        -6.3552
 148   1.0000      -0.225614        -6.1393
 149   1.0000      -0.221711        -6.0331
 150   1.0000      -0.213681        -5.8146
 151   1.0000      -0.212279        -5.7764
 152   1.0000      -0.204908        -5.5758
 153   0.0000      -0.148859        -4.0507
 154   0.0000      -0.133621        -3.6360
 155   0.0000      -0.133453        -3.6314
 156   0.0000      -0.133134        -3.6228
 157   0.0000      -0.132806        -3.6138

MULLIKEN ATOMIC CHARGES AND SPIN POPULATIONS
--------------------------------------------
   0 Au:    0.216803    0.029735
   1 Au:    0.153286    0.002463
   2 Au:    0.138083    0.001341
   3 Au:    0.238776   -0.003092
   4 Au:    0.136092    0.028717
   5 Au:    0.221759   -0.091869
   6 Au:    0.236754    0.001489
   7 Au:    0.042832   -0.004370
   8 Au:    0.093177   -0.070963
   9 Au:    0.338546   -0.040085
  10 Au:    0.111452   -0.063136
  11 Au:    0.212538   -0.004138
  12 Au:    0.227010    0.029683
  13 Au:    0.048484   -0.006451
  14 Au:    0.238448   -0.011367
  15 Mn:   -2.654040    4.202042
Sum of atomic charges         :   -0.0000000

LOEWDIN ATOMIC CHARGES AND SPIN POPULATIONS
-------------------------------------------
   0 Au:    0.019216    0.016466
   1 Au:    0.037202   -0.009815
   2 Au:    0.033451   -0.009014
   3 Au:    0.029898   -0.007880
   4 Au:    0.047638   -0.011034
   5 Au:    0.037391   -0.051178
   6 Au:    0.028624   -0.004649
   7 Au:    0.008580   -0.008956
   8 Au:    0.013949   -0.035275
   9 Au:    0.089497   -0.063786
  10 Au:    0.015392   -0.032810
  11 Au:    0.042728   -0.036508
  12 Au:    0.021402    0.016797
  13 Au:    0.009333   -0.009319
  14 Au:    0.048307   -0.042621
  15 Mn:   -0.482607    4.289582

  Mayer bond orders larger than 0.100000
B(  0-Au,  2-Au) :   0.2412 B(  0-Au,  6-Au) :   0.2678 B(  0-Au,  7-Au) :   0.2083
B(  0-Au,  8-Au) :   0.2520 B(  0-Au, 14-Au) :   0.2184 B(  0-Au, 15-Mn) :   0.2587
B(  1-Au,  2-Au) :   0.1795 B(  1-Au,  3-Au) :   0.1634 B(  1-Au,  5-Au) :   0.2412
B(  1-Au, 11-Au) :   0.1988 B(  1-Au, 12-Au) :   0.2372 B(  1-Au, 15-Mn) :   0.4289
B(  2-Au,  5-Au) :   0.2451 B(  2-Au,  6-Au) :   0.1647 B(  2-Au, 14-Au) :   0.2085
B(  2-Au, 15-Mn) :   0.4262 B(  3-Au,  4-Au) :   0.2280 B(  3-Au,  5-Au) :   0.2652
B(  3-Au, 12-Au) :   0.2671 B(  3-Au, 13-Au) :   0.2470 B(  3-Au, 15-Mn) :   0.2737
B(  4-Au,  5-Au) :   0.1446 B(  4-Au,  6-Au) :   0.2290 B(  4-Au,  7-Au) :   0.1804
B(  4-Au, 13-Au) :   0.1811 B(  4-Au, 15-Mn) :   0.4633 B(  5-Au,  6-Au) :   0.2692
B(  5-Au, 15-Mn) :   0.3242 B(  6-Au,  7-Au) :   0.2437 B(  6-Au, 15-Mn) :   0.2678
B(  7-Au,  8-Au) :   0.2250 B(  7-Au,  9-Au) :   0.3094 B(  7-Au, 15-Mn) :   0.3786
B(  8-Au,  9-Au) :   0.2715 B(  8-Au, 10-Au) :   0.2030 B(  8-Au, 14-Au) :   0.2467
B(  8-Au, 15-Mn) :   0.3873 B(  9-Au, 10-Au) :   0.2646 B(  9-Au, 13-Au) :   0.3063
B(  9-Au, 15-Mn) :   0.1678 B( 10-Au, 11-Au) :   0.2372 B( 10-Au, 12-Au) :   0.2519
B( 10-Au, 13-Au) :   0.2304 B( 10-Au, 15-Mn) :   0.3786 B( 11-Au, 12-Au) :   0.2158
B( 11-Au, 14-Au) :   0.3157 B( 11-Au, 15-Mn) :   0.3295 B( 12-Au, 13-Au) :   0.2020
B( 12-Au, 15-Mn) :   0.2631 B( 13-Au, 15-Mn) :   0.3792 B( 14-Au, 15-Mn) :   0.3053

FINAL SINGLE POINT ENERGY     -3188.222023645978

DIPOLE MOMENT
-------------
                                X             Y             Z
Electronic contribution:      0.03621      -2.45938      -1.31789
Nuclear contribution   :     -0.03170       2.37959       1.23097
                        -----------------------------------------
Total Dipole Moment    :      0.00451      -0.07979      -0.08691
                        -----------------------------------------
Magnitude (a.u.)       :      0.11807
Magnitude (Debye)      :      0.30012

Rotational constants in cm-1:     0.000985     0.000944     0.000903
Rotational constants in MHz :    29.532027    28.310020    27.070778

                             ****ORCA TERMINATED NORMALLY****
TOTAL RUN TIME: 0 days 0 hours 35 minutes 12 seconds 909 msec
