                         Program Version 5.0.3 -  RELEASE  -
|  1> !CASSCF def2-TZVP def2-TZVP/C
|  2> !MOREAD RIJCOSX
|  3> %maxcore 6000
|  4> %moinp "pbe.qro"
|  5> %pal nprocs 2 end
|  6>
|  7> %casscf
|  8>  mult 5,3
|  9>  bweight 1,1
| 10>  nroots 5,45
| 11>  nel 6
| 12>  norb 5
| 13> end
| 14>
| 15>
| 16> *xyzfile 0 5 pbe.xyz
| 17>
| 18>
| 19>                          ****END OF INPUT****

CARTESIAN COORDINATES (ANGSTROEM)
---------------------------------
  Au     8.599284    5.097797    6.529790
  Au     9.174496    7.375059    7.974291
  Au     8.549191    9.845111    6.646898
  Au     8.918612    7.439330    5.143509
  Au     6.646373    6.036954    4.531452
  Au     6.385882    8.721686    5.120388
  Au     4.766195    6.570372    6.534817
  Au     6.028431    4.069146    6.381738
  Au     5.972783   10.778865    6.943168
  Au     5.610930   10.106325    9.636151
  Au     8.356049    9.624787    9.387177
  Au     6.643567    7.579602   10.410320
  Au     6.792348    5.590609    8.609242
  Au     3.974672    8.871900    7.676123
  Cr     6.566854    8.222795    7.813965

 Total Charge           Charge          ....    0
 Multiplicity           Mult            ....    5
 Number of Electrons    NEL             ....  290
 Basis Dimension        Dim             ....  605

ORBITAL ENERGIES
----------------

  NO   OCC          E(Eh)            E(eV)
   0   2.0000    -220.496447     -6000.0134
   1   2.0000     -26.335078      -716.6139
   2   2.0000     -22.268890      -605.9673
   3   2.0000     -22.268806      -605.9650
   4   2.0000     -22.254414      -605.5734
   5   2.0000      -4.722279      -128.4998
   6   2.0000      -4.718336      -128.3925
   7   2.0000      -4.718235      -128.3897
   8   2.0000      -4.714152      -128.2786
   9   2.0000      -4.714115      -128.2776
  10   2.0000      -4.709277      -128.1459
  11   2.0000      -4.709044      -128.1396
  12   2.0000      -4.708988      -128.1381
  13   2.0000      -4.707393      -128.0947
  14   2.0000      -4.707317      -128.0926
  15   2.0000      -4.702693      -127.9668
  16   2.0000      -4.701585      -127.9366
  17   2.0000      -4.700038      -127.8945
  18   2.0000      -4.699971      -127.8927
  19   2.0000      -3.390040       -92.2477
  20   2.0000      -2.760900       -75.1279
  21   2.0000      -2.760289       -75.1113
  22   2.0000      -2.759213       -75.0820
  23   2.0000      -2.756727       -75.0144
  24   2.0000      -2.756491       -75.0079
  25   2.0000      -2.754904       -74.9647
  26   2.0000      -2.754735       -74.9601
  27   2.0000      -2.753499       -74.9265
  28   2.0000      -2.753370       -74.9230
  29   2.0000      -2.751609       -74.8751
  30   2.0000      -2.751555       -74.8736
  31   2.0000      -2.750592       -74.8474
  32   2.0000      -2.750369       -74.8414
  33   2.0000      -2.749738       -74.8242
  34   2.0000      -2.749604       -74.8205
  35   2.0000      -2.748535       -74.7914
  36   2.0000      -2.748177       -74.7817
  37   2.0000      -2.747915       -74.7746
  38   2.0000      -2.745507       -74.7090
  39   2.0000      -2.745472       -74.7081
  40   2.0000      -2.744842       -74.6910
  41   2.0000      -2.744778       -74.6892
  42   2.0000      -2.744512       -74.6820
  43   2.0000      -2.744486       -74.6813
  44   2.0000      -2.744185       -74.6731
  45   2.0000      -2.742665       -74.6317
  46   2.0000      -2.742206       -74.6192
  47   2.0000      -2.741900       -74.6109
  48   2.0000      -2.740735       -74.5792
  49   2.0000      -2.740621       -74.5761
  50   2.0000      -2.740229       -74.5654
  51   2.0000      -2.738462       -74.5173
  52   2.0000      -2.738134       -74.5084
  53   2.0000      -2.737251       -74.4844
  54   2.0000      -2.736495       -74.4638
  55   2.0000      -2.736100       -74.4531
  56   2.0000      -2.735426       -74.4347
  57   2.0000      -2.735253       -74.4300
  58   2.0000      -2.735141       -74.4270
  59   2.0000      -2.734507       -74.4097
  60   2.0000      -2.733330       -74.3777
  61   2.0000      -2.732836       -74.3643
  62   2.0000      -2.155928       -58.6658
  63   2.0000      -2.154713       -58.6327
  64   2.0000      -2.142776       -58.3079
  65   2.0000      -0.555124       -15.1057
  66   2.0000      -0.553709       -15.0672
  67   2.0000      -0.551383       -15.0039
  68   2.0000      -0.545262       -14.8373
  69   2.0000      -0.544440       -14.8150
  70   2.0000      -0.543067       -14.7776
  71   2.0000      -0.542784       -14.7699
  72   2.0000      -0.541369       -14.7314
  73   2.0000      -0.539206       -14.6725
  74   2.0000      -0.538220       -14.6457
  75   2.0000      -0.535565       -14.5735
  76   2.0000      -0.534426       -14.5425
  77   2.0000      -0.531024       -14.4499
  78   2.0000      -0.530591       -14.4381
  79   2.0000      -0.529523       -14.4090
  80   2.0000      -0.524374       -14.2689
  81   2.0000      -0.524114       -14.2619
  82   2.0000      -0.522611       -14.2210
  83   2.0000      -0.515945       -14.0396
  84   2.0000      -0.514544       -14.0014
  85   2.0000      -0.514499       -14.0002
  86   2.0000      -0.511562       -13.9203
  87   2.0000      -0.509994       -13.8776
  88   2.0000      -0.506896       -13.7933
  89   2.0000      -0.506768       -13.7899
  90   2.0000      -0.503104       -13.6902
  91   2.0000      -0.500959       -13.6318
  92   2.0000      -0.496417       -13.5082
  93   2.0000      -0.493237       -13.4217
  94   2.0000      -0.492309       -13.3964
  95   2.0000      -0.490435       -13.3454
  96   2.0000      -0.487913       -13.2768
  97   2.0000      -0.481743       -13.1089
  98   2.0000      -0.480549       -13.0764
  99   2.0000      -0.475681       -12.9439
 100   2.0000      -0.474233       -12.9045
 101   2.0000      -0.473111       -12.8740
 102   2.0000      -0.468174       -12.7397
 103   2.0000      -0.467587       -12.7237
 104   2.0000      -0.466690       -12.6993
 105   2.0000      -0.463116       -12.6020
 106   2.0000      -0.460223       -12.5233
 107   2.0000      -0.460157       -12.5215
 108   2.0000      -0.457876       -12.4594
 109   2.0000      -0.456618       -12.4252
 110   2.0000      -0.454895       -12.3783
 111   2.0000      -0.450361       -12.2550
 112   2.0000      -0.447821       -12.1858
 113   2.0000      -0.446643       -12.1538
 114   2.0000      -0.444291       -12.0898
 115   2.0000      -0.441925       -12.0254
 116   2.0000      -0.440412       -11.9842
 117   2.0000      -0.440094       -11.9756
 118   2.0000      -0.437307       -11.8997
 119   2.0000      -0.436136       -11.8679
 120   2.0000      -0.433001       -11.7826
 121   2.0000      -0.429900       -11.6982
 122   2.0000      -0.429829       -11.6962
 123   2.0000      -0.427235       -11.6257
 124   2.0000      -0.425115       -11.5680
 125   2.0000      -0.422255       -11.4901
 126   2.0000      -0.421681       -11.4745
 127   2.0000      -0.418146       -11.3783
 128   2.0000      -0.414644       -11.2830
 129   2.0000      -0.414019       -11.2660
 130   2.0000      -0.413584       -11.2542
 131   2.0000      -0.407900       -11.0995
 132   2.0000      -0.403984       -10.9930
 133   2.0000      -0.402255       -10.9459
 134   2.0000      -0.399833       -10.8800
 135   2.0000      -0.393853       -10.7173
 136   2.0000      -0.378863       -10.3094
 137   2.0000      -0.333064        -9.0631
 138   2.0000      -0.328085        -8.9277
 139   2.0000      -0.243126        -6.6158
 140   2.0000      -0.237277        -6.4566
 141   2.0000      -0.236570        -6.4374
 142   1.2000      -0.096779        -2.6335
 143   1.2000      -0.083819        -2.2808
 144   1.2000      -0.158895        -4.3238
 145   1.2000      -0.071746        -1.9523
 146   1.2000      -0.108943        -2.9645
 147   0.0000      -0.031522        -0.8578
 148   0.0000      -0.004326        -0.1177
 149   0.0000      -0.002991        -0.0814
 150   0.0000       0.003319         0.0903
 151   0.0000       0.006979         0.1899

MULLIKEN ATOMIC CHARGES AND SPIN DENSITIES
------------------------------------------
   0 Au:    0.167178    0.010584
   1 Au:    0.310860    0.035720
   2 Au:    0.265378    0.030403
   3 Au:    0.153229    0.014845
   4 Au:    0.168020    0.010575
   5 Au:    0.310883    0.035678
   6 Au:    0.065998    0.033936
   7 Au:    0.361216    0.007769
   8 Au:    0.582769    0.022026
   9 Au:    0.411245    0.009872
  10 Au:    0.582336    0.021809
  11 Au:    0.419443    0.025485
  12 Au:    0.065146    0.033963
  13 Au:    0.419003    0.025578
  14 Cr:   -4.282704    2.681758
Sum of atomic charges       :    0.0000000

LOEWDIN ATOMIC CHARGES AND SPIN DENSITIES
-----------------------------------------
   0 Au:   -0.012627    0.017673
   1 Au:    0.075630    0.056027
   2 Au:    0.115024    0.059381
   3 Au:    0.059732    0.026083
   4 Au:   -0.012545    0.017635
   5 Au:    0.075737    0.056140
   6 Au:    0.040623    0.061549
   7 Au:    0.112732    0.016151
   8 Au:    0.113480    0.045286
   9 Au:    0.094856    0.020269
  10 Au:    0.113182    0.045112
  11 Au:    0.155762    0.058321
  12 Au:    0.040242    0.061510
  13 Au:    0.155817    0.058432
  14 Cr:   -1.127646    2.400429

  Mayer bond orders larger than 0.100000
B(  0-Au,  1-Au) :   0.2686 B(  0-Au,  3-Au) :   0.2609 B(  0-Au,  7-Au) :   0.2053
B(  0-Au, 12-Au) :   0.1836 B(  0-Au, 14-Cr) :   0.3808 B(  1-Au,  2-Au) :   0.1459
B(  1-Au,  3-Au) :   0.2126 B(  1-Au, 10-Au) :   0.1422 B(  1-Au, 13-Au) :   0.1067
B(  1-Au, 14-Cr) :   0.3910 B(  2-Au,  5-Au) :   0.1448 B(  2-Au,  8-Au) :   0.1785
B(  2-Au, 10-Au) :   0.1788 B(  2-Au, 14-Cr) :   0.4252 B(  3-Au,  4-Au) :   0.2611
B(  3-Au,  5-Au) :   0.2144 B(  3-Au, 14-Cr) :   0.3020 B(  4-Au,  5-Au) :   0.2672
B(  4-Au,  6-Au) :   0.1835 B(  4-Au,  7-Au) :   0.2063 B(  4-Au, 14-Cr) :   0.3798
B(  5-Au,  8-Au) :   0.1425 B(  5-Au, 11-Au) :   0.1072 B(  5-Au, 14-Cr) :   0.3903
B(  6-Au,  7-Au) :   0.2555 B(  6-Au, 10-Au) :   0.1104 B(  6-Au, 12-Au) :   0.2535
B(  6-Au, 13-Au) :   0.2815 B(  6-Au, 14-Cr) :   0.3821 B(  7-Au, 12-Au) :   0.2561
B(  7-Au, 14-Cr) :   0.1070 B(  8-Au,  9-Au) :   0.1512 B(  8-Au, 12-Au) :   0.1102
B(  8-Au, 13-Au) :   0.1259 B(  8-Au, 14-Cr) :   0.2780 B(  9-Au, 10-Au) :   0.1515
B(  9-Au, 11-Au) :   0.1872 B(  9-Au, 13-Au) :   0.1876 B(  9-Au, 14-Cr) :   0.2783
B( 10-Au, 11-Au) :   0.1260 B( 10-Au, 14-Cr) :   0.2776 B( 11-Au, 12-Au) :   0.2817
B( 11-Au, 14-Cr) :   0.3756 B( 12-Au, 14-Cr) :   0.3826 B( 13-Au, 14-Cr) :   0.3754

FINAL SINGLE POINT ENERGY     -2930.497083464550

DIPOLE MOMENT
-------------
                                X             Y             Z
Electronic contribution:     11.21751     -18.12481     -19.49938
Nuclear contribution   :    -11.27451      18.64037      19.79442
                        -----------------------------------------
Total Dipole Moment    :     -0.05700       0.51556       0.29504
                        -----------------------------------------
Magnitude (a.u.)       :      0.59674
Magnitude (Debye)      :      1.51679

Rotational constants in cm-1:     0.001289     0.000890     0.000878
Rotational constants in MHz :    38.654436    26.690810    26.325999

                             ****ORCA TERMINATED NORMALLY****
TOTAL RUN TIME: 0 days 1 hours 36 minutes 11 seconds 476 msec
