                         Program Version 5.0.3 -  RELEASE  -
|  1> %pal nprocs 1 end
|  2>
|  3> !PBE def2-TZVP OPT UNO
|  4> !SLOWCONV
|  5>
|  6> *xyzfile 0 3 4.xyz                           ****END OF INPUT****
 Total Charge           Charge          ....    0
 Multiplicity           Mult            ....    3
 Number of Electrons    NEL             ....  330
FINAL SINGLE POINT ENERGY     -3436.733011520249
FINAL SINGLE POINT ENERGY     -3436.735869026467
FINAL SINGLE POINT ENERGY     -3436.736798612163
FINAL SINGLE POINT ENERGY     -3436.737355591725
FINAL SINGLE POINT ENERGY     -3436.737758551006
FINAL SINGLE POINT ENERGY     -3436.738140599220
FINAL SINGLE POINT ENERGY     -3436.738415787125
FINAL SINGLE POINT ENERGY     -3436.738664215243
FINAL SINGLE POINT ENERGY     -3436.739081328650
FINAL SINGLE POINT ENERGY     -3436.739471582242
FINAL SINGLE POINT ENERGY     -3436.740551839056
FINAL SINGLE POINT ENERGY     -3436.740621055929
FINAL SINGLE POINT ENERGY     -3436.740637147177
FINAL SINGLE POINT ENERGY     -3436.740645601412
FINAL SINGLE POINT ENERGY     -3436.740655174668
FINAL SINGLE POINT ENERGY     -3436.740661333746
FINAL SINGLE POINT ENERGY     -3436.740667458072
FINAL SINGLE POINT ENERGY     -3436.740671378641
FINAL SINGLE POINT ENERGY     -3436.740673574160
                    ***********************HURRAY********************

CARTESIAN COORDINATES (ANGSTROEM)
---------------------------------
  Au     8.529058    6.915375    9.671709
  Au     8.465609    5.098995    7.410940
  Au     7.916520    6.529139    5.045373
  Au     7.635500    9.873369    6.091442
  Au     9.694720    8.628198    4.565777
  Au     9.738556    7.513219    7.137666
  Au    10.321804   10.203529    6.823403
  Au     8.351454    9.563151    8.754315
  Au     6.087105    8.350551    9.837938
  Au     4.326100    7.087755    8.006004
  Au     5.272994    9.688841    7.532837
  Au     5.208635   10.411787    4.795093
  Au     7.095101    8.727271    3.536736
  Au     5.789799    5.210814    6.346584
  Au     5.220906    7.697898    5.346475
  Au     6.228730    5.367573    9.169870
  Fe     6.978626    7.408132    7.488571

 Multiplicity           Mult            ....    3
 Number of Electrons    NEL             ....  330
 Basis Dimension        Dim             ....  685

ORBITAL ENERGIES
----------------
                 SPIN UP ORBITALS
  NO   OCC          E(Eh)            E(eV)
   0   1.0000    -254.739848     -6931.8237
   1   1.0000     -29.572894      -804.7194
   2   1.0000     -25.512791      -694.2383
   3   1.0000     -25.507799      -694.1025
   4   1.0000     -25.506046      -694.0548
   5   1.0000      -4.037198      -109.8577
   6   1.0000      -4.035921      -109.8230
   7   1.0000      -4.033221      -109.7495
   8   1.0000      -4.033095      -109.7461
   9   1.0000      -4.032881      -109.7403
  10   1.0000      -4.031089      -109.6915
  11   1.0000      -4.031009      -109.6893
  12   1.0000      -4.029169      -109.6393
  13   1.0000      -4.029146      -109.6386
  14   1.0000      -4.028461      -109.6200
  15   1.0000      -4.028435      -109.6193
  16   1.0000      -4.024656      -109.5164
  17   1.0000      -4.023334      -109.4805
  18   1.0000      -4.023215      -109.4772
  19   1.0000      -4.019869      -109.3862
  20   1.0000      -4.019849      -109.3857
  21   1.0000      -3.350468       -91.1709
  22   1.0000      -2.253597       -61.3235
  23   1.0000      -2.251463       -61.2654
  24   1.0000      -2.250588       -61.2416
  25   1.0000      -2.250428       -61.2372
  26   1.0000      -2.250310       -61.2341
  27   1.0000      -2.248646       -61.1888
  28   1.0000      -2.248484       -61.1844
  29   1.0000      -2.248073       -61.1732
  30   1.0000      -2.246916       -61.1417
  31   1.0000      -2.246031       -61.1176
  32   1.0000      -2.245661       -61.1075
  33   1.0000      -2.245276       -61.0971
  34   1.0000      -2.245127       -61.0930
  35   1.0000      -2.244926       -61.0875
  36   1.0000      -2.244888       -61.0865
  37   1.0000      -2.244026       -61.0630
  38   1.0000      -2.243783       -61.0564
  39   1.0000      -2.243710       -61.0545
  40   1.0000      -2.243598       -61.0514
  41   1.0000      -2.243541       -61.0499
  42   1.0000      -2.243203       -61.0406
  43   1.0000      -2.243114       -61.0382
  44   1.0000      -2.242535       -61.0225
  45   1.0000      -2.242060       -61.0096
  46   1.0000      -2.241930       -61.0060
  47   1.0000      -2.241721       -61.0003
  48   1.0000      -2.241607       -60.9972
  49   1.0000      -2.240844       -60.9765
  50   1.0000      -2.240776       -60.9746
  51   1.0000      -2.240600       -60.9698
  52   1.0000      -2.240560       -60.9687
  53   1.0000      -2.239399       -60.9371
  54   1.0000      -2.238820       -60.9214
  55   1.0000      -2.238712       -60.9185
  56   1.0000      -2.237755       -60.8924
  57   1.0000      -2.237386       -60.8824
  58   1.0000      -2.237273       -60.8793
  59   1.0000      -2.236188       -60.8498
  60   1.0000      -2.236013       -60.8450
  61   1.0000      -2.235743       -60.8377
  62   1.0000      -2.235234       -60.8238
  63   1.0000      -2.234402       -60.8012
  64   1.0000      -2.234126       -60.7937
  65   1.0000      -2.233940       -60.7886
  66   1.0000      -2.231883       -60.7326
  67   1.0000      -2.231835       -60.7313
  68   1.0000      -2.230810       -60.7034
  69   1.0000      -2.230753       -60.7019
  70   1.0000      -2.173497       -59.1439
  71   1.0000      -2.162229       -58.8373
  72   1.0000      -2.158787       -58.7436
  73   1.0000      -0.442491       -12.0408
  74   1.0000      -0.404706       -11.0126
  75   1.0000      -0.396105       -10.7786
  76   1.0000      -0.392955       -10.6928
  77   1.0000      -0.379984       -10.3399
  78   1.0000      -0.379565       -10.3285
  79   1.0000      -0.375062       -10.2060
  80   1.0000      -0.372035       -10.1236
  81   1.0000      -0.371855       -10.1187
  82   1.0000      -0.369369       -10.0511
  83   1.0000      -0.367676       -10.0050
  84   1.0000      -0.364408        -9.9160
  85   1.0000      -0.357692        -9.7333
  86   1.0000      -0.356897        -9.7117
  87   1.0000      -0.355572        -9.6756
  88   1.0000      -0.354204        -9.6384
  89   1.0000      -0.350049        -9.5253
  90   1.0000      -0.347765        -9.4632
  91   1.0000      -0.347641        -9.4598
  92   1.0000      -0.346097        -9.4178
  93   1.0000      -0.345529        -9.4023
  94   1.0000      -0.341947        -9.3049
  95   1.0000      -0.341486        -9.2923
  96   1.0000      -0.338025        -9.1981
  97   1.0000      -0.336025        -9.1437
  98   1.0000      -0.335834        -9.1385
  99   1.0000      -0.333428        -9.0730
 100   1.0000      -0.331811        -9.0290
 101   1.0000      -0.328762        -8.9461
 102   1.0000      -0.325175        -8.8484
 103   1.0000      -0.324278        -8.8240
 104   1.0000      -0.319960        -8.7066
 105   1.0000      -0.318196        -8.6586
 106   1.0000      -0.317587        -8.6420
 107   1.0000      -0.313800        -8.5389
 108   1.0000      -0.311355        -8.4724
 109   1.0000      -0.311315        -8.4713
 110   1.0000      -0.309494        -8.4217
 111   1.0000      -0.304118        -8.2755
 112   1.0000      -0.300473        -8.1763
 113   1.0000      -0.298959        -8.1351
 114   1.0000      -0.298324        -8.1178
 115   1.0000      -0.294751        -8.0206
 116   1.0000      -0.293024        -7.9736
 117   1.0000      -0.291264        -7.9257
 118   1.0000      -0.290439        -7.9032
 119   1.0000      -0.289679        -7.8826
 120   1.0000      -0.287012        -7.8100
 121   1.0000      -0.286938        -7.8080
 122   1.0000      -0.281383        -7.6568
 123   1.0000      -0.280779        -7.6404
 124   1.0000      -0.279777        -7.6131
 125   1.0000      -0.279097        -7.5946
 126   1.0000      -0.276371        -7.5204
 127   1.0000      -0.275631        -7.5003
 128   1.0000      -0.275532        -7.4976
 129   1.0000      -0.274472        -7.4688
 130   1.0000      -0.273829        -7.4513
 131   1.0000      -0.271423        -7.3858
 132   1.0000      -0.270382        -7.3575
 133   1.0000      -0.269594        -7.3360
 134   1.0000      -0.268935        -7.3181
 135   1.0000      -0.268599        -7.3090
 136   1.0000      -0.267235        -7.2718
 137   1.0000      -0.266713        -7.2576
 138   1.0000      -0.266092        -7.2407
 139   1.0000      -0.264127        -7.1873
 140   1.0000      -0.261645        -7.1197
 141   1.0000      -0.260729        -7.0948
 142   1.0000      -0.256901        -6.9906
 143   1.0000      -0.255571        -6.9544
 144   1.0000      -0.255205        -6.9445
 145   1.0000      -0.253587        -6.9005
 146   1.0000      -0.253120        -6.8878
 147   1.0000      -0.251124        -6.8334
 148   1.0000      -0.251048        -6.8314
 149   1.0000      -0.249998        -6.8028
 150   1.0000      -0.249586        -6.7916
 151   1.0000      -0.247966        -6.7475
 152   1.0000      -0.246446        -6.7062
 153   1.0000      -0.245976        -6.6934
 154   1.0000      -0.245460        -6.6793
 155   1.0000      -0.245060        -6.6684
 156   1.0000      -0.241930        -6.5833
 157   1.0000      -0.241420        -6.5694
 158   1.0000      -0.240937        -6.5562
 159   1.0000      -0.235892        -6.4190
 160   1.0000      -0.235356        -6.4044
 161   1.0000      -0.231334        -6.2949
 162   1.0000      -0.217522        -5.9191
 163   1.0000      -0.214689        -5.8420
 164   1.0000      -0.206507        -5.6193
 165   1.0000      -0.198929        -5.4131
 166   0.0000      -0.186037        -5.0623
 167   0.0000      -0.156461        -4.2575
 168   0.0000      -0.140274        -3.8170
 169   0.0000      -0.139684        -3.8010
 170   0.0000      -0.137641        -3.7454

                 SPIN DOWN ORBITALS
  NO   OCC          E(Eh)            E(eV)
   0   1.0000    -254.739259     -6931.8076
   1   1.0000     -29.518928      -803.2509
   2   1.0000     -25.470139      -693.0777
   3   1.0000     -25.468151      -693.0236
   4   1.0000     -25.466156      -692.9693
   5   1.0000      -4.036820      -109.8475
   6   1.0000      -4.036652      -109.8429
   7   1.0000      -4.033665      -109.7616
   8   1.0000      -4.033533      -109.7580
   9   1.0000      -4.032818      -109.7386
  10   1.0000      -4.030964      -109.6881
  11   1.0000      -4.030883      -109.6859
  12   1.0000      -4.029274      -109.6421
  13   1.0000      -4.029254      -109.6416
  14   1.0000      -4.028984      -109.6342
  15   1.0000      -4.028962      -109.6336
  16   1.0000      -4.024706      -109.5178
  17   1.0000      -4.023414      -109.4827
  18   1.0000      -4.023295      -109.4794
  19   1.0000      -4.021171      -109.4216
  20   1.0000      -4.021151      -109.4211
  21   1.0000      -3.227717       -87.8306
  22   1.0000      -2.253278       -61.3148
  23   1.0000      -2.252726       -61.2998
  24   1.0000      -2.251235       -61.2592
  25   1.0000      -2.250923       -61.2507
  26   1.0000      -2.250822       -61.2480
  27   1.0000      -2.248721       -61.1908
  28   1.0000      -2.247739       -61.1641
  29   1.0000      -2.247661       -61.1620
  30   1.0000      -2.247088       -61.1464
  31   1.0000      -2.246131       -61.1203
  32   1.0000      -2.245883       -61.1136
  33   1.0000      -2.245639       -61.1069
  34   1.0000      -2.245028       -61.0903
  35   1.0000      -2.244865       -61.0859
  36   1.0000      -2.244779       -61.0835
  37   1.0000      -2.244213       -61.0681
  38   1.0000      -2.243898       -61.0596
  39   1.0000      -2.243867       -61.0587
  40   1.0000      -2.243828       -61.0577
  41   1.0000      -2.243690       -61.0539
  42   1.0000      -2.243392       -61.0458
  43   1.0000      -2.243281       -61.0428
  44   1.0000      -2.242566       -61.0233
  45   1.0000      -2.242157       -61.0122
  46   1.0000      -2.242115       -61.0111
  47   1.0000      -2.241927       -61.0059
  48   1.0000      -2.241533       -60.9952
  49   1.0000      -2.241167       -60.9853
  50   1.0000      -2.241105       -60.9836
  51   1.0000      -2.241071       -60.9826
  52   1.0000      -2.241040       -60.9818
  53   1.0000      -2.239540       -60.9410
  54   1.0000      -2.239397       -60.9371
  55   1.0000      -2.239297       -60.9344
  56   1.0000      -2.237561       -60.8871
  57   1.0000      -2.237481       -60.8850
  58   1.0000      -2.237370       -60.8819
  59   1.0000      -2.236583       -60.8605
  60   1.0000      -2.236507       -60.8585
  61   1.0000      -2.235931       -60.8428
  62   1.0000      -2.235848       -60.8405
  63   1.0000      -2.235709       -60.8367
  64   1.0000      -2.234954       -60.8162
  65   1.0000      -2.234243       -60.7968
  66   1.0000      -2.233090       -60.7655
  67   1.0000      -2.233027       -60.7638
  68   1.0000      -2.231997       -60.7357
  69   1.0000      -2.231955       -60.7346
  70   1.0000      -2.048120       -55.7322
  71   1.0000      -2.044611       -55.6367
  72   1.0000      -2.040868       -55.5348
  73   1.0000      -0.440037       -11.9740
  74   1.0000      -0.404727       -11.0132
  75   1.0000      -0.397139       -10.8067
  76   1.0000      -0.392815       -10.6890
  77   1.0000      -0.378733       -10.3059
  78   1.0000      -0.376472       -10.2443
  79   1.0000      -0.371446       -10.1076
  80   1.0000      -0.370215       -10.0740
  81   1.0000      -0.369342       -10.0503
  82   1.0000      -0.368544       -10.0286
  83   1.0000      -0.366839        -9.9822
  84   1.0000      -0.361032        -9.8242
  85   1.0000      -0.357221        -9.7205
  86   1.0000      -0.357166        -9.7190
  87   1.0000      -0.355176        -9.6648
  88   1.0000      -0.353987        -9.6325
  89   1.0000      -0.349859        -9.5201
  90   1.0000      -0.348030        -9.4704
  91   1.0000      -0.347911        -9.4671
  92   1.0000      -0.346509        -9.4290
  93   1.0000      -0.344832        -9.3834
  94   1.0000      -0.342280        -9.3139
  95   1.0000      -0.342133        -9.3099
  96   1.0000      -0.338640        -9.2149
  97   1.0000      -0.336855        -9.1663
  98   1.0000      -0.336232        -9.1493
  99   1.0000      -0.333763        -9.0821
 100   1.0000      -0.331409        -9.0181
 101   1.0000      -0.327742        -8.9183
 102   1.0000      -0.324223        -8.8226
 103   1.0000      -0.324192        -8.8217
 104   1.0000      -0.320632        -8.7248
 105   1.0000      -0.318431        -8.6649
 106   1.0000      -0.318135        -8.6569
 107   1.0000      -0.314120        -8.5476
 108   1.0000      -0.312013        -8.4903
 109   1.0000      -0.310022        -8.4361
 110   1.0000      -0.307795        -8.3755
 111   1.0000      -0.301870        -8.2143
 112   1.0000      -0.300815        -8.1856
 113   1.0000      -0.295042        -8.0285
 114   1.0000      -0.294748        -8.0205
 115   1.0000      -0.293180        -7.9778
 116   1.0000      -0.292224        -7.9518
 117   1.0000      -0.289942        -7.8897
 118   1.0000      -0.288425        -7.8485
 119   1.0000      -0.287681        -7.8282
 120   1.0000      -0.285802        -7.7771
 121   1.0000      -0.283779        -7.7220
 122   1.0000      -0.282008        -7.6738
 123   1.0000      -0.279992        -7.6190
 124   1.0000      -0.279762        -7.6127
 125   1.0000      -0.277379        -7.5479
 126   1.0000      -0.276183        -7.5153
 127   1.0000      -0.275726        -7.5029
 128   1.0000      -0.275109        -7.4861
 129   1.0000      -0.274477        -7.4689
 130   1.0000      -0.274170        -7.4606
 131   1.0000      -0.271540        -7.3890
 132   1.0000      -0.270811        -7.3691
 133   1.0000      -0.270213        -7.3529
 134   1.0000      -0.269211        -7.3256
 135   1.0000      -0.268543        -7.3074
 136   1.0000      -0.267664        -7.2835
 137   1.0000      -0.266927        -7.2634
 138   1.0000      -0.266431        -7.2500
 139   1.0000      -0.264666        -7.2019
 140   1.0000      -0.261939        -7.1277
 141   1.0000      -0.261459        -7.1147
 142   1.0000      -0.257506        -7.0071
 143   1.0000      -0.255980        -6.9656
 144   1.0000      -0.255479        -6.9520
 145   1.0000      -0.254502        -6.9254
 146   1.0000      -0.253826        -6.9069
 147   1.0000      -0.251765        -6.8509
 148   1.0000      -0.250763        -6.8236
 149   1.0000      -0.250041        -6.8040
 150   1.0000      -0.248930        -6.7737
 151   1.0000      -0.247336        -6.7304
 152   1.0000      -0.246224        -6.7001
 153   1.0000      -0.243987        -6.6392
 154   1.0000      -0.243081        -6.6146
 155   1.0000      -0.242285        -6.5929
 156   1.0000      -0.234493        -6.3809
 157   1.0000      -0.230110        -6.2616
 158   1.0000      -0.218885        -5.9562
 159   1.0000      -0.216348        -5.8871
 160   1.0000      -0.208734        -5.6799
 161   1.0000      -0.200664        -5.4603
 162   1.0000      -0.172957        -4.7064
 163   1.0000      -0.171750        -4.6735
 164   0.0000      -0.154830        -4.2131
 165   0.0000      -0.150259        -4.0888
 166   0.0000      -0.149297        -4.0626
 167   0.0000      -0.143816        -3.9134
 168   0.0000      -0.136439        -3.7127

MULLIKEN ATOMIC CHARGES AND SPIN POPULATIONS
--------------------------------------------
   0 Au:    0.387222   -0.058716
   1 Au:    0.411361   -0.015972
   2 Au:   -0.208419    0.012829
   3 Au:   -1.028786   -0.072197
   4 Au:    0.383243    0.023640
   5 Au:   -0.204338   -0.107655
   6 Au:    0.488000   -0.214708
   7 Au:    0.141450   -0.003468
   8 Au:    0.413786   -0.004739
   9 Au:    0.387444   -0.059169
  10 Au:    0.141219   -0.003073
  11 Au:    0.488206   -0.214720
  12 Au:    0.383005    0.024672
  13 Au:    0.411745   -0.016012
  14 Au:   -0.203486   -0.106598
  15 Au:    0.239183    0.000544
  16 Fe:   -2.630837    2.815341
Sum of atomic charges         :   -0.0000000

LOEWDIN ATOMIC CHARGES AND SPIN POPULATIONS
-------------------------------------------
   0 Au:    0.087007   -0.050543
   1 Au:    0.097274   -0.042451
   2 Au:    0.007320    0.009569
   3 Au:   -0.134607   -0.068293
   4 Au:    0.042059   -0.008621
   5 Au:   -0.044360   -0.084083
   6 Au:    0.103166   -0.168478
   7 Au:    0.035576   -0.059713
   8 Au:    0.085076   -0.016598
   9 Au:    0.087227   -0.050759
  10 Au:    0.035636   -0.059590
  11 Au:    0.103124   -0.168348
  12 Au:    0.041662   -0.008067
  13 Au:    0.097449   -0.042258
  14 Au:   -0.044459   -0.083607
  15 Au:    0.063380   -0.020410
  16 Fe:   -0.662529    2.922251

  Mayer bond orders larger than 0.100000
B(  0-Au,  5-Au) :   0.1847 B(  0-Au,  7-Au) :   0.2069 B(  0-Au,  8-Au) :   0.1669
B(  0-Au, 15-Au) :   0.2123 B(  0-Au, 16-Fe) :   0.4037 B(  1-Au,  2-Au) :   0.2173
B(  1-Au,  5-Au) :   0.3432 B(  1-Au, 13-Au) :   0.1157 B(  1-Au, 15-Au) :   0.1927
B(  1-Au, 16-Fe) :   0.3741 B(  2-Au,  3-Au) :   0.1347 B(  2-Au,  4-Au) :   0.2916
B(  2-Au,  5-Au) :   0.1795 B(  2-Au, 12-Au) :   0.2923 B(  2-Au, 13-Au) :   0.2154
B(  2-Au, 14-Au) :   0.1770 B(  2-Au, 16-Fe) :   0.4872 B(  3-Au,  4-Au) :   0.2736
B(  3-Au,  5-Au) :   0.2408 B(  3-Au,  6-Au) :   0.3521 B(  3-Au,  7-Au) :   0.2591
B(  3-Au, 10-Au) :   0.2600 B(  3-Au, 11-Au) :   0.3526 B(  3-Au, 12-Au) :   0.2726
B(  3-Au, 14-Au) :   0.2399 B(  3-Au, 16-Fe) :   0.2907 B(  4-Au,  5-Au) :   0.2476
B(  4-Au,  6-Au) :   0.1829 B(  4-Au, 12-Au) :   0.2227 B(  5-Au,  6-Au) :   0.2811
B(  5-Au,  7-Au) :   0.1249 B(  5-Au, 16-Fe) :   0.4045 B(  6-Au,  7-Au) :   0.2182
B(  7-Au,  8-Au) :   0.2252 B(  7-Au, 16-Fe) :   0.4379 B(  8-Au,  9-Au) :   0.1665
B(  8-Au, 10-Au) :   0.2253 B(  8-Au, 16-Fe) :   0.4424 B(  9-Au, 10-Au) :   0.2062
B(  9-Au, 14-Au) :   0.1841 B(  9-Au, 15-Au) :   0.2126 B(  9-Au, 16-Fe) :   0.4043
B( 10-Au, 11-Au) :   0.2182 B( 10-Au, 14-Au) :   0.1244 B( 10-Au, 16-Fe) :   0.4390
B( 11-Au, 12-Au) :   0.1816 B( 11-Au, 14-Au) :   0.2822 B( 12-Au, 14-Au) :   0.2487
B( 13-Au, 14-Au) :   0.3446 B( 13-Au, 15-Au) :   0.1909 B( 13-Au, 16-Fe) :   0.3747
B( 14-Au, 16-Fe) :   0.4040 B( 15-Au, 16-Fe) :   0.4356

FINAL SINGLE POINT ENERGY     -3436.740674499962

DIPOLE MOMENT
-------------
                                X             Y             Z
Electronic contribution:     10.04030      19.84880     -23.15190
Nuclear contribution   :    -10.10566     -19.94388      23.31104
                        -----------------------------------------
Total Dipole Moment    :     -0.06537      -0.09509       0.15913
                        -----------------------------------------
Magnitude (a.u.)       :      0.19657
Magnitude (Debye)      :      0.49963

Rotational constants in cm-1:     0.000965     0.000822     0.000732
Rotational constants in MHz :    28.920616    24.632285    21.932855

                             ****ORCA TERMINATED NORMALLY****
TOTAL RUN TIME: 0 days 7 hours 25 minutes 27 seconds 876 msec
