                         Program Version 5.0.3 -  RELEASE  -
|  1> !SC-NEVPT2 def2-TZVP def2-TZVP/C
|  2> !MOREAD RIJCOSX def2/J
|  3> %maxcore 4000
|  4> %moinp "casscf.gbw"
|  5> %pal nprocs 6 end
|  6>
|  7> %casscf
|  8>  mult 5,3
|  9>  bweight 1,1
| 10>  nroots 5,45
| 11>  nel 6
| 12>  norb 5
| 13>  ptsettings
| 14>   d4tpre 1e-14 # default = 1e-10
| 15>   d3tpre 1e-14
| 16>  end
| 17>  rel
| 18>    dosoc true
| 19>    gtensor true
| 20>  end
| 21> end
| 22>
| 23>
| 24> *xyzfile 0 5 pbe.xyz
| 25>
| 26>
| 27>                          ****END OF INPUT****

CARTESIAN COORDINATES (ANGSTROEM)
---------------------------------
  Au     6.532512    6.405381    6.890279
  Au    11.607878    8.610893    9.980761
  Au    10.433786    9.399555    7.514908
  Au     9.334519    5.715692    6.394103
  Au     8.298968    8.411692    6.122154
  Au    11.493906    6.655332    8.019445
  Au     9.696021    6.808715   10.858695
  Au     8.927005    9.537049    9.893466
  Au     7.477943    3.920055    7.620997
  Au     9.762147    4.693896    9.020897
  Au     6.708784    8.563154    8.631304
  Au     7.260380    5.902414    9.678157
  Fe     9.019057    7.345470    8.407268

 Total Charge           Charge          ....    0
 Multiplicity           Mult            ....    5
 Number of Electrons    NEL             ....  254
 Basis Dimension        Dim             ....  525

ORBITAL ENERGIES
----------------

  NO   OCC          E(Eh)            E(eV)
   0   2.0000    -261.393097     -7112.8678
   1   2.0000     -31.957109      -869.5971
   2   2.0000     -27.437289      -746.6066
   3   2.0000     -27.437060      -746.6004
   4   2.0000     -27.436374      -746.5817
   5   2.0000      -4.729525      -128.6969
   6   2.0000      -4.729298      -128.6908
   7   2.0000      -4.724068      -128.5484
   8   2.0000      -4.723847      -128.5424
   9   2.0000      -4.723752      -128.5398
  10   2.0000      -4.713051      -128.2487
  11   2.0000      -4.712714      -128.2395
  12   2.0000      -4.712113      -128.2231
  13   2.0000      -4.709660      -128.1564
  14   2.0000      -4.709438      -128.1503
  15   2.0000      -4.709387      -128.1489
  16   2.0000      -4.700168      -127.8981
  17   2.0000      -4.192057      -114.0717
  18   2.0000      -2.774801       -75.5062
  19   2.0000      -2.773767       -75.4780
  20   2.0000      -2.772760       -75.4506
  21   2.0000      -2.767251       -75.3007
  22   2.0000      -2.767094       -75.2965
  23   2.0000      -2.765649       -75.2571
  24   2.0000      -2.765572       -75.2551
  25   2.0000      -2.765122       -75.2428
  26   2.0000      -2.764883       -75.2363
  27   2.0000      -2.763335       -75.1942
  28   2.0000      -2.761754       -75.1511
  29   2.0000      -2.761146       -75.1346
  30   2.0000      -2.760371       -75.1135
  31   2.0000      -2.759725       -75.0959
  32   2.0000      -2.758627       -75.0661
  33   2.0000      -2.757927       -75.0470
  34   2.0000      -2.756587       -75.0105
  35   2.0000      -2.756044       -74.9958
  36   2.0000      -2.751948       -74.8843
  37   2.0000      -2.751335       -74.8676
  38   2.0000      -2.751072       -74.8605
  39   2.0000      -2.749980       -74.8308
  40   2.0000      -2.748654       -74.7947
  41   2.0000      -2.747343       -74.7590
  42   2.0000      -2.746865       -74.7460
  43   2.0000      -2.746496       -74.7359
  44   2.0000      -2.746449       -74.7347
  45   2.0000      -2.745938       -74.7208
  46   2.0000      -2.744761       -74.6887
  47   2.0000      -2.744733       -74.6880
  48   2.0000      -2.744130       -74.6716
  49   2.0000      -2.743429       -74.6525
  50   2.0000      -2.743352       -74.6504
  51   2.0000      -2.741488       -74.5997
  52   2.0000      -2.740674       -74.5775
  53   2.0000      -2.740616       -74.5760
  54   2.0000      -2.736626       -74.4674
  55   2.0000      -2.734928       -74.4212
  56   2.0000      -2.734669       -74.4141
  57   2.0000      -0.594123       -16.1669
  58   2.0000      -0.563303       -15.3282
  59   2.0000      -0.559569       -15.2266
  60   2.0000      -0.558629       -15.2011
  61   2.0000      -0.551175       -14.9982
  62   2.0000      -0.548013       -14.9122
  63   2.0000      -0.544863       -14.8265
  64   2.0000      -0.543460       -14.7883
  65   2.0000      -0.540443       -14.7062
  66   2.0000      -0.539120       -14.6702
  67   2.0000      -0.538064       -14.6415
  68   2.0000      -0.535645       -14.5757
  69   2.0000      -0.533715       -14.5231
  70   2.0000      -0.532087       -14.4788
  71   2.0000      -0.529839       -14.4177
  72   2.0000      -0.527014       -14.3408
  73   2.0000      -0.524790       -14.2803
  74   2.0000      -0.521737       -14.1972
  75   2.0000      -0.519819       -14.1450
  76   2.0000      -0.516011       -14.0414
  77   2.0000      -0.511439       -13.9170
  78   2.0000      -0.509197       -13.8560
  79   2.0000      -0.504521       -13.7287
  80   2.0000      -0.501577       -13.6486
  81   2.0000      -0.500580       -13.6215
  82   2.0000      -0.498626       -13.5683
  83   2.0000      -0.496682       -13.5154
  84   2.0000      -0.494813       -13.4645
  85   2.0000      -0.493952       -13.4411
  86   2.0000      -0.487199       -13.2573
  87   2.0000      -0.485170       -13.2021
  88   2.0000      -0.479726       -13.0540
  89   2.0000      -0.479647       -13.0519
  90   2.0000      -0.476276       -12.9601
  91   2.0000      -0.475328       -12.9343
  92   2.0000      -0.467950       -12.7336
  93   2.0000      -0.466966       -12.7068
  94   2.0000      -0.461247       -12.5512
  95   2.0000      -0.458979       -12.4895
  96   2.0000      -0.457129       -12.4391
  97   2.0000      -0.452580       -12.3153
  98   2.0000      -0.451217       -12.2782
  99   2.0000      -0.449450       -12.2301
 100   2.0000      -0.446443       -12.1483
 101   2.0000      -0.444058       -12.0834
 102   2.0000      -0.443329       -12.0636
 103   2.0000      -0.442562       -12.0427
 104   2.0000      -0.438758       -11.9392
 105   2.0000      -0.437034       -11.8923
 106   2.0000      -0.436748       -11.8845
 107   2.0000      -0.434245       -11.8164
 108   2.0000      -0.432922       -11.7804
 109   2.0000      -0.432557       -11.7705
 110   2.0000      -0.431625       -11.7451
 111   2.0000      -0.423658       -11.5283
 112   2.0000      -0.423352       -11.5200
 113   2.0000      -0.422504       -11.4969
 114   2.0000      -0.417654       -11.3649
 115   2.0000      -0.412592       -11.2272
 116   2.0000      -0.412452       -11.2234
 117   2.0000      -0.395634       -10.7657
 118   2.0000      -0.367351        -9.9961
 119   2.0000      -0.342435        -9.3181
 120   2.0000      -0.311902        -8.4873
 121   2.0000      -0.243787        -6.6338
 122   2.0000      -0.225466        -6.1352
 123   2.0000      -0.224896        -6.1197
 124   1.2000      -0.271128        -7.3778
 125   1.2000      -0.269919        -7.3449
 126   1.2000      -0.256237        -6.9726
 127   1.2000      -0.265150        -7.2151
 128   1.2000      -0.273007        -7.4289
 129   0.0000      -0.055062        -1.4983
 130   0.0000      -0.028419        -0.7733
 131   0.0000      -0.006664        -0.1813
 132   0.0000       0.002991         0.0814
 133   0.0000       0.013829         0.3763

MULLIKEN ATOMIC CHARGES AND SPIN DENSITIES
------------------------------------------
   0 Au:    0.029845    0.005890
   1 Au:    0.179694    0.004468
   2 Au:    0.178702    0.010320
   3 Au:    0.269971    0.009757
   4 Au:    0.207628    0.010728
   5 Au:    0.201086    0.010735
   6 Au:    0.200521    0.010715
   7 Au:    0.179765    0.010283
   8 Au:    0.134054    0.005089
   9 Au:    0.265244    0.005707
  10 Au:    0.204861    0.010794
  11 Au:    0.268761    0.009915
  12 Fe:   -2.320132    2.895598
Sum of atomic charges       :    0.0000000

LOEWDIN ATOMIC CHARGES AND SPIN DENSITIES
-----------------------------------------
   0 Au:   -0.010629    0.007325
   1 Au:    0.071387    0.005511
   2 Au:    0.000347    0.012609
   3 Au:    0.028658    0.012933
   4 Au:    0.040333    0.013346
   5 Au:    0.044923    0.013292
   6 Au:    0.045153    0.013272
   7 Au:    0.000171    0.012593
   8 Au:    0.058276    0.005491
   9 Au:   -0.018508    0.008641
  10 Au:    0.039184    0.013428
  11 Au:    0.029298    0.013071
  12 Fe:   -0.328594    2.868488

  Mayer bond orders larger than 0.100000
B(  0-Au,  1-Au) :   0.1262 B(  0-Au,  3-Au) :   0.1249 B(  0-Au,  4-Au) :   0.2141
B(  0-Au,  8-Au) :   0.2795 B(  0-Au, 10-Au) :   0.2154 B(  0-Au, 11-Au) :   0.1242
B(  0-Au, 12-Fe) :   0.3647 B(  1-Au,  2-Au) :   0.1649 B(  1-Au,  5-Au) :   0.2453
B(  1-Au,  6-Au) :   0.2462 B(  1-Au,  7-Au) :   0.1666 B(  1-Au, 12-Fe) :   0.2765
B(  2-Au,  4-Au) :   0.3435 B(  2-Au,  7-Au) :   0.1805 B(  2-Au, 12-Fe) :   0.4480
B(  3-Au,  5-Au) :   0.2615 B(  3-Au,  8-Au) :   0.2425 B(  3-Au,  9-Au) :   0.2150
B(  3-Au, 12-Fe) :   0.3779 B(  4-Au, 12-Fe) :   0.5021 B(  5-Au,  9-Au) :   0.1814
B(  5-Au, 12-Fe) :   0.4486 B(  6-Au,  9-Au) :   0.1774 B(  6-Au, 11-Au) :   0.2666
B(  6-Au, 12-Fe) :   0.4487 B(  7-Au, 10-Au) :   0.3450 B(  7-Au, 12-Fe) :   0.4461
B(  8-Au,  9-Au) :   0.2347 B(  8-Au, 11-Au) :   0.2398 B(  8-Au, 12-Fe) :   0.1435
B(  9-Au, 11-Au) :   0.2114 B(  9-Au, 12-Fe) :   0.4090 B( 10-Au, 12-Fe) :   0.5044
B( 11-Au, 12-Fe) :   0.3805

FINAL SINGLE POINT ENERGY     -2886.115452725030

DIPOLE MOMENT
-------------
                                X             Y             Z
Electronic contribution:     -2.02379     -11.36962      -0.70754
Nuclear contribution   :      2.20336      11.16792       0.83097
                        -----------------------------------------
Total Dipole Moment    :      0.17957      -0.20171       0.12343
                        -----------------------------------------
Magnitude (a.u.)       :      0.29693
Magnitude (Debye)      :      0.75473

Rotational constants in cm-1:     0.001699     0.001260     0.001140
Rotational constants in MHz :    50.940282    37.778322    34.186589

                             ****ORCA TERMINATED NORMALLY****
TOTAL RUN TIME: 0 days 2 hours 16 minutes 1 seconds 459 msec
