                         Program Version 5.0.3 -  RELEASE  -
|  1> %pal nprocs 1 end
|  2>
|  3> !PBE def2-TZVP OPT UNO
|  4> !SLOWCONV KDIIS
|  5>
|  6> %geom maxiter 300 end
|  7>
|  8> *xyzfile 0 3 9.xyz                           ****END OF INPUT****
 Total Charge           Charge          ....    0
 Multiplicity           Mult            ....    3
 Number of Electrons    NEL             ....  328
FINAL SINGLE POINT ENERGY     -3217.480663171579
FINAL SINGLE POINT ENERGY     -3217.483986395728
FINAL SINGLE POINT ENERGY     -3217.486385308801
FINAL SINGLE POINT ENERGY     -3217.488101559909
FINAL SINGLE POINT ENERGY     -3217.489474744609
FINAL SINGLE POINT ENERGY     -3217.490761030561
FINAL SINGLE POINT ENERGY     -3217.492183882544
FINAL SINGLE POINT ENERGY     -3217.493806362024
FINAL SINGLE POINT ENERGY     -3217.495377535133
FINAL SINGLE POINT ENERGY     -3217.496793398233
FINAL SINGLE POINT ENERGY     -3217.501598794023
FINAL SINGLE POINT ENERGY     -3217.501662602729
FINAL SINGLE POINT ENERGY     -3217.501682688595
FINAL SINGLE POINT ENERGY     -3217.501699615042
FINAL SINGLE POINT ENERGY     -3217.501709276617
FINAL SINGLE POINT ENERGY     -3217.501716320284
FINAL SINGLE POINT ENERGY     -3217.501722960993
FINAL SINGLE POINT ENERGY     -3217.501727056178
FINAL SINGLE POINT ENERGY     -3217.501729270147
                    ***********************HURRAY********************

CARTESIAN COORDINATES (ANGSTROEM)
---------------------------------
  Au    11.524664    8.550357    8.129408
  Au     9.709825    7.340841    6.417815
  Au     9.905197   10.206893    6.606987
  Au     7.879516    9.166561    5.115028
  Au     7.094331    6.493481    5.754796
  Au     5.748141    7.970629    3.856802
  Au     7.203304   10.694558    7.477272
  Au     9.373423   11.427380    9.039072
  Au     7.330752    7.102025   10.345328
  Au     7.756401    9.859103   10.753732
  Au     8.235617    5.629679    8.083020
  Au    10.506433    9.393181   10.603968
  Au    10.070924    6.762779    9.775041
  Au     5.588229    6.505262    8.113424
  Au     5.392402    8.766993    6.471790
  Au     5.654142    9.082670    9.174227
  Cr     8.627925    8.652401    8.511178

 Multiplicity           Mult            ....    3
 Number of Electrons    NEL             ....  328
 Basis Dimension        Dim             ....  685

ORBITAL ENERGIES
----------------
                 SPIN UP ORBITALS
  NO   OCC          E(Eh)            E(eV)
   0   1.0000    -214.505899     -5837.0023
   1   1.0000     -24.305498      -661.3862
   2   1.0000     -20.671171      -562.4912
   3   1.0000     -20.670653      -562.4771
   4   1.0000     -20.664868      -562.3196
   5   1.0000      -4.037832      -109.8750
   6   1.0000      -4.037768      -109.8732
   7   1.0000      -4.037721      -109.8720
   8   1.0000      -4.034055      -109.7722
   9   1.0000      -4.033451      -109.7558
  10   1.0000      -4.033432      -109.7553
  11   1.0000      -4.029527      -109.6490
  12   1.0000      -4.029524      -109.6489
  13   1.0000      -4.026370      -109.5631
  14   1.0000      -4.026258      -109.5600
  15   1.0000      -4.025213      -109.5316
  16   1.0000      -4.022631      -109.4614
  17   1.0000      -4.022595      -109.4604
  18   1.0000      -4.021284      -109.4247
  19   1.0000      -4.017394      -109.3189
  20   1.0000      -4.013960      -109.2254
  21   1.0000      -2.808799       -76.4313
  22   1.0000      -2.253506       -61.3210
  23   1.0000      -2.253360       -61.3170
  24   1.0000      -2.251670       -61.2711
  25   1.0000      -2.251455       -61.2652
  26   1.0000      -2.251362       -61.2627
  27   1.0000      -2.251018       -61.2533
  28   1.0000      -2.250422       -61.2371
  29   1.0000      -2.249838       -61.2212
  30   1.0000      -2.248998       -61.1983
  31   1.0000      -2.248599       -61.1875
  32   1.0000      -2.248424       -61.1827
  33   1.0000      -2.248226       -61.1773
  34   1.0000      -2.247350       -61.1535
  35   1.0000      -2.247241       -61.1505
  36   1.0000      -2.246156       -61.1210
  37   1.0000      -2.245914       -61.1144
  38   1.0000      -2.245529       -61.1039
  39   1.0000      -2.244823       -61.0847
  40   1.0000      -2.243126       -61.0386
  41   1.0000      -2.242465       -61.0206
  42   1.0000      -2.242184       -61.0129
  43   1.0000      -2.241747       -61.0010
  44   1.0000      -2.241622       -60.9976
  45   1.0000      -2.241401       -60.9916
  46   1.0000      -2.241330       -60.9897
  47   1.0000      -2.239630       -60.9434
  48   1.0000      -2.239358       -60.9360
  49   1.0000      -2.239326       -60.9352
  50   1.0000      -2.239016       -60.9267
  51   1.0000      -2.237364       -60.8818
  52   1.0000      -2.237132       -60.8755
  53   1.0000      -2.236561       -60.8599
  54   1.0000      -2.236338       -60.8538
  55   1.0000      -2.236210       -60.8504
  56   1.0000      -2.236128       -60.8481
  57   1.0000      -2.234776       -60.8113
  58   1.0000      -2.234510       -60.8041
  59   1.0000      -2.234451       -60.8025
  60   1.0000      -2.234283       -60.7979
  61   1.0000      -2.233331       -60.7720
  62   1.0000      -2.233062       -60.7647
  63   1.0000      -2.231890       -60.7328
  64   1.0000      -2.231617       -60.7254
  65   1.0000      -2.230808       -60.7034
  66   1.0000      -2.230519       -60.6955
  67   1.0000      -2.227860       -60.6231
  68   1.0000      -2.224889       -60.5423
  69   1.0000      -2.224130       -60.5216
  70   1.0000      -1.801367       -49.0177
  71   1.0000      -1.800566       -48.9959
  72   1.0000      -1.792980       -48.7895
  73   1.0000      -0.430160       -11.7052
  74   1.0000      -0.397447       -10.8151
  75   1.0000      -0.387269       -10.5381
  76   1.0000      -0.386389       -10.5142
  77   1.0000      -0.376307       -10.2398
  78   1.0000      -0.373292       -10.1578
  79   1.0000      -0.372103       -10.1254
  80   1.0000      -0.366703        -9.9785
  81   1.0000      -0.366487        -9.9726
  82   1.0000      -0.363453        -9.8901
  83   1.0000      -0.362349        -9.8600
  84   1.0000      -0.360143        -9.8000
  85   1.0000      -0.359144        -9.7728
  86   1.0000      -0.355806        -9.6820
  87   1.0000      -0.353922        -9.6307
  88   1.0000      -0.353008        -9.6058
  89   1.0000      -0.352082        -9.5806
  90   1.0000      -0.349179        -9.5016
  91   1.0000      -0.348823        -9.4920
  92   1.0000      -0.345640        -9.4054
  93   1.0000      -0.344631        -9.3779
  94   1.0000      -0.343219        -9.3395
  95   1.0000      -0.341443        -9.2911
  96   1.0000      -0.338283        -9.2051
  97   1.0000      -0.335204        -9.1214
  98   1.0000      -0.332806        -9.0561
  99   1.0000      -0.331086        -9.0093
 100   1.0000      -0.330585        -8.9957
 101   1.0000      -0.326858        -8.8943
 102   1.0000      -0.325794        -8.8653
 103   1.0000      -0.323342        -8.7986
 104   1.0000      -0.321284        -8.7426
 105   1.0000      -0.321159        -8.7392
 106   1.0000      -0.318918        -8.6782
 107   1.0000      -0.316620        -8.6157
 108   1.0000      -0.312301        -8.4981
 109   1.0000      -0.310075        -8.4376
 110   1.0000      -0.309772        -8.4293
 111   1.0000      -0.309745        -8.4286
 112   1.0000      -0.305991        -8.3264
 113   1.0000      -0.296162        -8.0590
 114   1.0000      -0.295648        -8.0450
 115   1.0000      -0.293358        -7.9827
 116   1.0000      -0.292894        -7.9700
 117   1.0000      -0.291722        -7.9382
 118   1.0000      -0.286973        -7.8089
 119   1.0000      -0.286826        -7.8049
 120   1.0000      -0.284322        -7.7368
 121   1.0000      -0.282531        -7.6881
 122   1.0000      -0.281616        -7.6632
 123   1.0000      -0.279003        -7.5921
 124   1.0000      -0.277489        -7.5508
 125   1.0000      -0.275653        -7.5009
 126   1.0000      -0.273989        -7.4556
 127   1.0000      -0.273466        -7.4414
 128   1.0000      -0.272758        -7.4221
 129   1.0000      -0.270283        -7.3548
 130   1.0000      -0.269823        -7.3423
 131   1.0000      -0.269024        -7.3205
 132   1.0000      -0.268809        -7.3147
 133   1.0000      -0.267348        -7.2749
 134   1.0000      -0.265666        -7.2291
 135   1.0000      -0.264220        -7.1898
 136   1.0000      -0.261652        -7.1199
 137   1.0000      -0.261395        -7.1129
 138   1.0000      -0.261057        -7.1037
 139   1.0000      -0.260485        -7.0882
 140   1.0000      -0.259831        -7.0704
 141   1.0000      -0.257799        -7.0151
 142   1.0000      -0.256777        -6.9873
 143   1.0000      -0.254441        -6.9237
 144   1.0000      -0.253158        -6.8888
 145   1.0000      -0.252768        -6.8782
 146   1.0000      -0.251029        -6.8309
 147   1.0000      -0.250691        -6.8217
 148   1.0000      -0.249975        -6.8022
 149   1.0000      -0.246433        -6.7058
 150   1.0000      -0.246134        -6.6977
 151   1.0000      -0.245299        -6.6749
 152   1.0000      -0.243649        -6.6300
 153   1.0000      -0.243194        -6.6177
 154   1.0000      -0.237348        -6.4586
 155   1.0000      -0.236332        -6.4309
 156   1.0000      -0.234557        -6.3826
 157   1.0000      -0.229575        -6.2471
 158   1.0000      -0.228702        -6.2233
 159   1.0000      -0.226264        -6.1570
 160   1.0000      -0.222454        -6.0533
 161   1.0000      -0.219301        -5.9675
 162   1.0000      -0.211980        -5.7683
 163   1.0000      -0.201150        -5.4736
 164   1.0000      -0.199624        -5.4320
 165   0.0000      -0.183181        -4.9846
 166   0.0000      -0.182671        -4.9707
 167   0.0000      -0.165861        -4.5133
 168   0.0000      -0.140600        -3.8259
 169   0.0000      -0.135692        -3.6924

                 SPIN DOWN ORBITALS
  NO   OCC          E(Eh)            E(eV)
   0   1.0000    -214.505488     -5836.9911
   1   1.0000     -24.259097      -660.1236
   2   1.0000     -20.638045      -561.5898
   3   1.0000     -20.636828      -561.5566
   4   1.0000     -20.625477      -561.2478
   5   1.0000      -4.038245      -109.8862
   6   1.0000      -4.037784      -109.8737
   7   1.0000      -4.037777      -109.8735
   8   1.0000      -4.034271      -109.7781
   9   1.0000      -4.033551      -109.7585
  10   1.0000      -4.033535      -109.7581
  11   1.0000      -4.029544      -109.6495
  12   1.0000      -4.029542      -109.6494
  13   1.0000      -4.027059      -109.5818
  14   1.0000      -4.026944      -109.5787
  15   1.0000      -4.025961      -109.5520
  16   1.0000      -4.022664      -109.4623
  17   1.0000      -4.022632      -109.4614
  18   1.0000      -4.021327      -109.4259
  19   1.0000      -4.017934      -109.3335
  20   1.0000      -4.014684      -109.2451
  21   1.0000      -2.683837       -73.0309
  22   1.0000      -2.253457       -61.3197
  23   1.0000      -2.253265       -61.3145
  24   1.0000      -2.252315       -61.2886
  25   1.0000      -2.251514       -61.2668
  26   1.0000      -2.251498       -61.2664
  27   1.0000      -2.251182       -61.2578
  28   1.0000      -2.250327       -61.2345
  29   1.0000      -2.249849       -61.2215
  30   1.0000      -2.249499       -61.2120
  31   1.0000      -2.248537       -61.1858
  32   1.0000      -2.248490       -61.1845
  33   1.0000      -2.248425       -61.1828
  34   1.0000      -2.247414       -61.1552
  35   1.0000      -2.247362       -61.1538
  36   1.0000      -2.246455       -61.1291
  37   1.0000      -2.246422       -61.1283
  38   1.0000      -2.245959       -61.1156
  39   1.0000      -2.245407       -61.1006
  40   1.0000      -2.243659       -61.0531
  41   1.0000      -2.242917       -61.0329
  42   1.0000      -2.242786       -61.0293
  43   1.0000      -2.242086       -61.0103
  44   1.0000      -2.241931       -61.0060
  45   1.0000      -2.241784       -61.0020
  46   1.0000      -2.241608       -60.9973
  47   1.0000      -2.240323       -60.9623
  48   1.0000      -2.239808       -60.9483
  49   1.0000      -2.239200       -60.9317
  50   1.0000      -2.239196       -60.9316
  51   1.0000      -2.237571       -60.8874
  52   1.0000      -2.237294       -60.8799
  53   1.0000      -2.237287       -60.8797
  54   1.0000      -2.236656       -60.8625
  55   1.0000      -2.236083       -60.8469
  56   1.0000      -2.235799       -60.8392
  57   1.0000      -2.234970       -60.8166
  58   1.0000      -2.234963       -60.8164
  59   1.0000      -2.234861       -60.8137
  60   1.0000      -2.234295       -60.7983
  61   1.0000      -2.233328       -60.7719
  62   1.0000      -2.233156       -60.7673
  63   1.0000      -2.232351       -60.7454
  64   1.0000      -2.231785       -60.7300
  65   1.0000      -2.231653       -60.7264
  66   1.0000      -2.231414       -60.7199
  67   1.0000      -2.228280       -60.6346
  68   1.0000      -2.225754       -60.5658
  69   1.0000      -2.224696       -60.5371
  70   1.0000      -1.685676       -45.8696
  71   1.0000      -1.682746       -45.7898
  72   1.0000      -1.656946       -45.0878
  73   1.0000      -0.426113       -11.5951
  74   1.0000      -0.396399       -10.7866
  75   1.0000      -0.387686       -10.5495
  76   1.0000      -0.387082       -10.5330
  77   1.0000      -0.373436       -10.1617
  78   1.0000      -0.372921       -10.1477
  79   1.0000      -0.371358       -10.1052
  80   1.0000      -0.365934        -9.9576
  81   1.0000      -0.365338        -9.9414
  82   1.0000      -0.362555        -9.8656
  83   1.0000      -0.361635        -9.8406
  84   1.0000      -0.358201        -9.7471
  85   1.0000      -0.357166        -9.7190
  86   1.0000      -0.356924        -9.7124
  87   1.0000      -0.354612        -9.6495
  88   1.0000      -0.353323        -9.6144
  89   1.0000      -0.350751        -9.5444
  90   1.0000      -0.349888        -9.5209
  91   1.0000      -0.348876        -9.4934
  92   1.0000      -0.346253        -9.4220
  93   1.0000      -0.344452        -9.3730
  94   1.0000      -0.343862        -9.3570
  95   1.0000      -0.342143        -9.3102
  96   1.0000      -0.339200        -9.2301
  97   1.0000      -0.336038        -9.1441
  98   1.0000      -0.333608        -9.0779
  99   1.0000      -0.331212        -9.0127
 100   1.0000      -0.330705        -8.9989
 101   1.0000      -0.327226        -8.9043
 102   1.0000      -0.326590        -8.8870
 103   1.0000      -0.324143        -8.8204
 104   1.0000      -0.322385        -8.7725
 105   1.0000      -0.320072        -8.7096
 106   1.0000      -0.318369        -8.6633
 107   1.0000      -0.317696        -8.6449
 108   1.0000      -0.312542        -8.5047
 109   1.0000      -0.310938        -8.4611
 110   1.0000      -0.310346        -8.4449
 111   1.0000      -0.308463        -8.3937
 112   1.0000      -0.303697        -8.2640
 113   1.0000      -0.296001        -8.0546
 114   1.0000      -0.295401        -8.0383
 115   1.0000      -0.294068        -8.0020
 116   1.0000      -0.292462        -7.9583
 117   1.0000      -0.292445        -7.9578
 118   1.0000      -0.287876        -7.8335
 119   1.0000      -0.287830        -7.8323
 120   1.0000      -0.285192        -7.7605
 121   1.0000      -0.283194        -7.7061
 122   1.0000      -0.282291        -7.6815
 123   1.0000      -0.280037        -7.6202
 124   1.0000      -0.278259        -7.5718
 125   1.0000      -0.276687        -7.5290
 126   1.0000      -0.274932        -7.4813
 127   1.0000      -0.273761        -7.4494
 128   1.0000      -0.273289        -7.4366
 129   1.0000      -0.271422        -7.3858
 130   1.0000      -0.270819        -7.3694
 131   1.0000      -0.270108        -7.3500
 132   1.0000      -0.269871        -7.3436
 133   1.0000      -0.268104        -7.2955
 134   1.0000      -0.266532        -7.2527
 135   1.0000      -0.265307        -7.2194
 136   1.0000      -0.262672        -7.1477
 137   1.0000      -0.262260        -7.1365
 138   1.0000      -0.261747        -7.1225
 139   1.0000      -0.261703        -7.1213
 140   1.0000      -0.260556        -7.0901
 141   1.0000      -0.258669        -7.0387
 142   1.0000      -0.257777        -7.0145
 143   1.0000      -0.255383        -6.9493
 144   1.0000      -0.254067        -6.9135
 145   1.0000      -0.253748        -6.9048
 146   1.0000      -0.251579        -6.8458
 147   1.0000      -0.251206        -6.8357
 148   1.0000      -0.251008        -6.8303
 149   1.0000      -0.247522        -6.7354
 150   1.0000      -0.246988        -6.7209
 151   1.0000      -0.246744        -6.7143
 152   1.0000      -0.244316        -6.6482
 153   1.0000      -0.244134        -6.6432
 154   1.0000      -0.239021        -6.5041
 155   1.0000      -0.237708        -6.4684
 156   1.0000      -0.234273        -6.3749
 157   1.0000      -0.230381        -6.2690
 158   1.0000      -0.220908        -6.0112
 159   1.0000      -0.216568        -5.8931
 160   1.0000      -0.213490        -5.8094
 161   1.0000      -0.204445        -5.5632
 162   1.0000      -0.179167        -4.8754
 163   0.0000      -0.148072        -4.0293
 164   0.0000      -0.136761        -3.7215
 165   0.0000      -0.132978        -3.6185
 166   0.0000      -0.130325        -3.5463
 167   0.0000      -0.125242        -3.4080

MULLIKEN ATOMIC CHARGES AND SPIN POPULATIONS
--------------------------------------------
   0 Au:    0.470993   -0.021014
   1 Au:    0.317100   -0.047704
   2 Au:    0.553218   -0.075790
   3 Au:   -0.154912   -0.077747
   4 Au:    0.032225   -0.002099
   5 Au:    0.493373   -0.253031
   6 Au:    0.316198   -0.047615
   7 Au:    0.470687   -0.020804
   8 Au:    0.445140   -0.048957
   9 Au:    0.457777   -0.024227
  10 Au:    0.384495   -0.024308
  11 Au:    0.387814   -0.126246
  12 Au:    0.458021   -0.024473
  13 Au:    0.190473   -0.064529
  14 Au:    0.035974   -0.002123
  15 Au:    0.382775   -0.023861
  16 Cr:   -5.241351    2.884529
Sum of atomic charges         :   -0.0000000

LOEWDIN ATOMIC CHARGES AND SPIN POPULATIONS
-------------------------------------------
   0 Au:    0.124819   -0.057396
   1 Au:    0.109193   -0.076073
   2 Au:    0.106240   -0.109300
   3 Au:   -0.016430   -0.094157
   4 Au:   -0.035863   -0.047850
   5 Au:    0.125908   -0.191817
   6 Au:    0.109288   -0.076024
   7 Au:    0.124868   -0.057234
   8 Au:    0.113394   -0.082689
   9 Au:    0.126238   -0.078470
  10 Au:    0.079615   -0.055512
  11 Au:    0.102710   -0.102020
  12 Au:    0.126002   -0.078645
  13 Au:    0.066488   -0.041918
  14 Au:   -0.035119   -0.047791
  15 Au:    0.079473   -0.055205
  16 Cr:   -1.306824    3.252101

  Mayer bond orders larger than 0.100000
B(  0-Au,  1-Au) :   0.2474 B(  0-Au,  2-Au) :   0.2472 B(  0-Au, 11-Au) :   0.2256
B(  0-Au, 12-Au) :   0.2146 B(  0-Au, 16-Cr) :   0.4089 B(  1-Au,  2-Au) :   0.1306
B(  1-Au,  3-Au) :   0.2132 B(  1-Au,  4-Au) :   0.1920 B(  1-Au,  9-Au) :   0.1114
B(  1-Au, 10-Au) :   0.1857 B(  1-Au, 16-Cr) :   0.6536 B(  2-Au,  3-Au) :   0.3145
B(  2-Au,  6-Au) :   0.1303 B(  2-Au,  7-Au) :   0.2471 B(  2-Au, 16-Cr) :   0.4801
B(  3-Au,  4-Au) :   0.2278 B(  3-Au,  5-Au) :   0.3718 B(  3-Au,  6-Au) :   0.2140
B(  3-Au, 14-Au) :   0.2265 B(  3-Au, 16-Cr) :   0.4428 B(  4-Au,  5-Au) :   0.3162
B(  4-Au, 10-Au) :   0.3501 B(  4-Au, 13-Au) :   0.2226 B(  4-Au, 14-Au) :   0.2707
B(  4-Au, 16-Cr) :   0.3329 B(  5-Au, 14-Au) :   0.3156 B(  6-Au,  7-Au) :   0.2474
B(  6-Au, 12-Au) :   0.1112 B(  6-Au, 14-Au) :   0.1917 B(  6-Au, 15-Au) :   0.1858
B(  6-Au, 16-Cr) :   0.6535 B(  7-Au,  9-Au) :   0.2150 B(  7-Au, 11-Au) :   0.2260
B(  7-Au, 16-Cr) :   0.4094 B(  8-Au,  9-Au) :   0.2182 B(  8-Au, 10-Au) :   0.1688
B(  8-Au, 12-Au) :   0.2181 B(  8-Au, 13-Au) :   0.1751 B(  8-Au, 15-Au) :   0.1690
B(  8-Au, 16-Cr) :   0.5810 B(  9-Au, 11-Au) :   0.2436 B(  9-Au, 15-Au) :   0.2019
B(  9-Au, 16-Cr) :   0.6174 B( 10-Au, 12-Au) :   0.2017 B( 10-Au, 13-Au) :   0.2162
B( 10-Au, 16-Cr) :   0.4486 B( 11-Au, 12-Au) :   0.2439 B( 11-Au, 16-Cr) :   0.3947
B( 12-Au, 16-Cr) :   0.6172 B( 13-Au, 14-Au) :   0.2213 B( 13-Au, 15-Au) :   0.2170
B( 13-Au, 16-Cr) :   0.4080 B( 14-Au, 15-Au) :   0.3497 B( 14-Au, 16-Cr) :   0.3319
B( 15-Au, 16-Cr) :   0.4482

FINAL SINGLE POINT ENERGY     -3217.501730410053

DIPOLE MOMENT
-------------
                                X             Y             Z
Electronic contribution:    -19.78851      -7.58542     -22.86886
Nuclear contribution   :     20.01394       7.68931      23.07469
                        -----------------------------------------
Total Dipole Moment    :      0.22543       0.10390       0.20583
                        -----------------------------------------
Magnitude (a.u.)       :      0.32246
Magnitude (Debye)      :      0.81962

Rotational constants in cm-1:     0.001045     0.000722     0.000691
Rotational constants in MHz :    31.328228    21.640554    20.721864

                             ****ORCA TERMINATED NORMALLY****
TOTAL RUN TIME: 0 days 6 hours 41 minutes 15 seconds 399 msec
