                         Program Version 5.0.3 -  RELEASE  -
|  1> !RI-B2PLYP def2-TZVP def2-TZVP/C
|  2> !RIJCOSX
|  3> %pal nprocs 6 end
|  4>
|  5> *xyzfile 0 5 pbe.xyz
|  6>
|  7> $new_job
|  8>
|  9> !RI-B2PLYP def2-TZVP def2-TZVP/C
| 10> !RIJCOSX
| 11> %pal nprocs 6 end
| 12>
| 13> *xyzfile 0 3 pbe.xyz
| 14>
| 15>
| 16>
| 17>
| 18>
| 19>                          ****END OF INPUT****
 Total Charge           Charge          ....    0
 Multiplicity           Mult            ....    5
 Number of Electrons    NEL             ....  292
MP2 TOTAL ENERGY:    -3161.736628768 Eh
FINAL SINGLE POINT ENERGY     -3161.736628768117

CARTESIAN COORDINATES (ANGSTROEM)
---------------------------------
  Au     7.882320   10.619084    6.640926
  Au     9.861667    8.702974    7.113971
  Au     8.171476    9.552892    9.228592
  Au     8.506644    6.744903    9.481274
  Au     8.973009    6.031194    6.772807
  Au     8.480715    7.971828    4.795960
  Au     7.445212   10.379291    3.923804
  Au     4.578795    7.354028    7.333452
  Au     6.391993    6.194714    5.446528
  Au     5.673309    8.960066    5.382138
  Au     5.543308    9.948545    8.059297
  Au     6.615412    5.234976    8.082704
  Au     4.306681    5.771331    9.501042
  Au     6.006924    7.903649    9.941733
  Fe     7.233493    7.934372    7.360396

 Multiplicity           Mult            ....    3
 Number of Electrons    NEL             ....  292
 Basis Dimension        Dim             ....  605

ORBITAL ENERGIES
----------------
                 SPIN UP ORBITALS
  NO   OCC          E(Eh)            E(eV)
   0   1.0000    -258.343396     -7029.8812
   1   1.0000     -30.902840      -840.9090
   2   1.0000     -26.621408      -724.4053
   3   1.0000     -26.596208      -723.7196
   4   1.0000     -26.585660      -723.4326
   5   1.0000      -4.408135      -119.9515
   6   1.0000      -4.407934      -119.9460
   7   1.0000      -4.405983      -119.8929
   8   1.0000      -4.405891      -119.8904
   9   1.0000      -4.400667      -119.7482
  10   1.0000      -4.400657      -119.7480
  11   1.0000      -4.395132      -119.5976
  12   1.0000      -4.394995      -119.5939
  13   1.0000      -4.394863      -119.5903
  14   1.0000      -4.394681      -119.5853
  15   1.0000      -4.392846      -119.5354
  16   1.0000      -4.392801      -119.5342
  17   1.0000      -4.386643      -119.3666
  18   1.0000      -4.386497      -119.3626
  19   1.0000      -3.915829      -106.5551
  20   1.0000      -2.666436       -72.5574
  21   1.0000      -2.614419       -71.1420
  22   1.0000      -2.592623       -70.5489
  23   1.0000      -2.531060       -68.8737
  24   1.0000      -2.526670       -68.7542
  25   1.0000      -2.526564       -68.7513
  26   1.0000      -2.526546       -68.7508
  27   1.0000      -2.525617       -68.7255
  28   1.0000      -2.524508       -68.6954
  29   1.0000      -2.523884       -68.6784
  30   1.0000      -2.523370       -68.6644
  31   1.0000      -2.523203       -68.6599
  32   1.0000      -2.522529       -68.6415
  33   1.0000      -2.522509       -68.6410
  34   1.0000      -2.522428       -68.6388
  35   1.0000      -2.521090       -68.6024
  36   1.0000      -2.520440       -68.5846
  37   1.0000      -2.517935       -68.5165
  38   1.0000      -2.517564       -68.5064
  39   1.0000      -2.516731       -68.4837
  40   1.0000      -2.516259       -68.4709
  41   1.0000      -2.515070       -68.4385
  42   1.0000      -2.514653       -68.4272
  43   1.0000      -2.514269       -68.4167
  44   1.0000      -2.513615       -68.3989
  45   1.0000      -2.512849       -68.3781
  46   1.0000      -2.512651       -68.3727
  47   1.0000      -2.511880       -68.3517
  48   1.0000      -2.511560       -68.3430
  49   1.0000      -2.511219       -68.3337
  50   1.0000      -2.510915       -68.3255
  51   1.0000      -2.510632       -68.3178
  52   1.0000      -2.510513       -68.3145
  53   1.0000      -2.510001       -68.3006
  54   1.0000      -2.509660       -68.2913
  55   1.0000      -2.507865       -68.2425
  56   1.0000      -2.507705       -68.2381
  57   1.0000      -2.507063       -68.2206
  58   1.0000      -2.506777       -68.2129
  59   1.0000      -2.505529       -68.1789
  60   1.0000      -2.505353       -68.1741
  61   1.0000      -2.502074       -68.0849
  62   1.0000      -2.501865       -68.0792
  63   1.0000      -2.501563       -68.0710
  64   1.0000      -2.501443       -68.0677
  65   1.0000      -0.566680       -15.4201
  66   1.0000      -0.565453       -15.3868
  67   1.0000      -0.557662       -15.1748
  68   1.0000      -0.541355       -14.7310
  69   1.0000      -0.524719       -14.2783
  70   1.0000      -0.515092       -14.0164
  71   1.0000      -0.475791       -12.9469
  72   1.0000      -0.470937       -12.8148
  73   1.0000      -0.468134       -12.7386
  74   1.0000      -0.464914       -12.6509
  75   1.0000      -0.459746       -12.5103
  76   1.0000      -0.457815       -12.4578
  77   1.0000      -0.455834       -12.4039
  78   1.0000      -0.453890       -12.3510
  79   1.0000      -0.452904       -12.3242
  80   1.0000      -0.452740       -12.3197
  81   1.0000      -0.450729       -12.2649
  82   1.0000      -0.450220       -12.2511
  83   1.0000      -0.446460       -12.1488
  84   1.0000      -0.441666       -12.0184
  85   1.0000      -0.441554       -12.0153
  86   1.0000      -0.441135       -12.0039
  87   1.0000      -0.439767       -11.9667
  88   1.0000      -0.439184       -11.9508
  89   1.0000      -0.435480       -11.8500
  90   1.0000      -0.434530       -11.8242
  91   1.0000      -0.432187       -11.7604
  92   1.0000      -0.430666       -11.7190
  93   1.0000      -0.423369       -11.5205
  94   1.0000      -0.421016       -11.4564
  95   1.0000      -0.419699       -11.4206
  96   1.0000      -0.419333       -11.4106
  97   1.0000      -0.417999       -11.3743
  98   1.0000      -0.415222       -11.2988
  99   1.0000      -0.414257       -11.2725
 100   1.0000      -0.409366       -11.1394
 101   1.0000      -0.408610       -11.1188
 102   1.0000      -0.400728       -10.9044
 103   1.0000      -0.395971       -10.7749
 104   1.0000      -0.390290       -10.6203
 105   1.0000      -0.389375       -10.5954
 106   1.0000      -0.389226       -10.5914
 107   1.0000      -0.377956       -10.2847
 108   1.0000      -0.375049       -10.2056
 109   1.0000      -0.374984       -10.2038
 110   1.0000      -0.373128       -10.1533
 111   1.0000      -0.373051       -10.1512
 112   1.0000      -0.371587       -10.1114
 113   1.0000      -0.370108       -10.0711
 114   1.0000      -0.369150       -10.0451
 115   1.0000      -0.367771       -10.0076
 116   1.0000      -0.367090        -9.9890
 117   1.0000      -0.366912        -9.9842
 118   1.0000      -0.365954        -9.9581
 119   1.0000      -0.364928        -9.9302
 120   1.0000      -0.364726        -9.9247
 121   1.0000      -0.361445        -9.8354
 122   1.0000      -0.360283        -9.8038
 123   1.0000      -0.359808        -9.7909
 124   1.0000      -0.357769        -9.7354
 125   1.0000      -0.355001        -9.6601
 126   1.0000      -0.353548        -9.6205
 127   1.0000      -0.353237        -9.6121
 128   1.0000      -0.353019        -9.6061
 129   1.0000      -0.350434        -9.5358
 130   1.0000      -0.348731        -9.4894
 131   1.0000      -0.347382        -9.4528
 132   1.0000      -0.344032        -9.3616
 133   1.0000      -0.343902        -9.3580
 134   1.0000      -0.343410        -9.3447
 135   1.0000      -0.343197        -9.3389
 136   1.0000      -0.340859        -9.2753
 137   1.0000      -0.340688        -9.2706
 138   1.0000      -0.327819        -8.9204
 139   1.0000      -0.320830        -8.7302
 140   1.0000      -0.320469        -8.7204
 141   1.0000      -0.319212        -8.6862
 142   1.0000      -0.298346        -8.1184
 143   1.0000      -0.297301        -8.0900
 144   1.0000      -0.250690        -6.8216
 145   1.0000      -0.226567        -6.1652
 146   1.0000      -0.205734        -5.5983
 147   0.0000      -0.119965        -3.2644
 148   0.0000      -0.116555        -3.1716
 149   0.0000      -0.078489        -2.1358
 150   0.0000      -0.077832        -2.1179
 151   0.0000      -0.052866        -1.4386

                 SPIN DOWN ORBITALS
  NO   OCC          E(Eh)            E(eV)
   0   1.0000    -258.341376     -7029.8262
   1   1.0000     -30.810897      -838.4071
   2   1.0000     -26.521963      -721.6993
   3   1.0000     -26.516246      -721.5437
   4   1.0000     -26.513260      -721.4625
   5   1.0000      -4.408262      -119.9549
   6   1.0000      -4.408055      -119.9493
   7   1.0000      -4.406189      -119.8985
   8   1.0000      -4.406098      -119.8960
   9   1.0000      -4.401613      -119.7740
  10   1.0000      -4.401602      -119.7737
  11   1.0000      -4.395353      -119.6036
  12   1.0000      -4.395205      -119.5996
  13   1.0000      -4.395098      -119.5967
  14   1.0000      -4.394910      -119.5916
  15   1.0000      -4.393362      -119.5495
  16   1.0000      -4.393297      -119.5477
  17   1.0000      -4.386660      -119.3671
  18   1.0000      -4.386506      -119.3629
  19   1.0000      -3.673315       -99.9560
  20   1.0000      -2.530707       -68.8640
  21   1.0000      -2.525768       -68.7296
  22   1.0000      -2.525711       -68.7281
  23   1.0000      -2.525600       -68.7251
  24   1.0000      -2.524298       -68.6896
  25   1.0000      -2.524185       -68.6866
  26   1.0000      -2.523346       -68.6637
  27   1.0000      -2.522976       -68.6537
  28   1.0000      -2.522650       -68.6448
  29   1.0000      -2.522534       -68.6416
  30   1.0000      -2.522458       -68.6396
  31   1.0000      -2.522431       -68.6388
  32   1.0000      -2.520814       -68.5948
  33   1.0000      -2.520372       -68.5828
  34   1.0000      -2.518051       -68.5197
  35   1.0000      -2.517721       -68.5107
  36   1.0000      -2.517468       -68.5038
  37   1.0000      -2.517047       -68.4923
  38   1.0000      -2.514833       -68.4321
  39   1.0000      -2.514397       -68.4202
  40   1.0000      -2.514220       -68.4154
  41   1.0000      -2.513565       -68.3976
  42   1.0000      -2.512917       -68.3800
  43   1.0000      -2.512692       -68.3738
  44   1.0000      -2.511660       -68.3457
  45   1.0000      -2.511328       -68.3367
  46   1.0000      -2.511247       -68.3345
  47   1.0000      -2.510906       -68.3252
  48   1.0000      -2.510689       -68.3193
  49   1.0000      -2.510594       -68.3167
  50   1.0000      -2.510422       -68.3120
  51   1.0000      -2.510348       -68.3100
  52   1.0000      -2.508515       -68.2602
  53   1.0000      -2.508359       -68.2559
  54   1.0000      -2.507461       -68.2315
  55   1.0000      -2.507191       -68.2241
  56   1.0000      -2.505795       -68.1861
  57   1.0000      -2.505607       -68.1810
  58   1.0000      -2.502106       -68.0858
  59   1.0000      -2.502042       -68.0840
  60   1.0000      -2.501971       -68.0821
  61   1.0000      -2.501826       -68.0782
  62   1.0000      -2.354847       -64.0786
  63   1.0000      -2.350501       -63.9604
  64   1.0000      -2.337768       -63.6139
  65   1.0000      -0.524056       -14.2603
  66   1.0000      -0.488225       -13.2853
  67   1.0000      -0.473908       -12.8957
  68   1.0000      -0.472841       -12.8667
  69   1.0000      -0.471072       -12.8185
  70   1.0000      -0.469114       -12.7652
  71   1.0000      -0.468610       -12.7515
  72   1.0000      -0.468542       -12.7497
  73   1.0000      -0.461915       -12.5694
  74   1.0000      -0.458098       -12.4655
  75   1.0000      -0.456559       -12.4236
  76   1.0000      -0.455761       -12.4019
  77   1.0000      -0.455424       -12.3927
  78   1.0000      -0.454552       -12.3690
  79   1.0000      -0.452986       -12.3264
  80   1.0000      -0.452161       -12.3039
  81   1.0000      -0.449264       -12.2251
  82   1.0000      -0.446701       -12.1554
  83   1.0000      -0.441569       -12.0157
  84   1.0000      -0.441342       -12.0095
  85   1.0000      -0.439913       -11.9706
  86   1.0000      -0.437433       -11.9032
  87   1.0000      -0.435825       -11.8594
  88   1.0000      -0.435368       -11.8470
  89   1.0000      -0.425719       -11.5844
  90   1.0000      -0.424956       -11.5637
  91   1.0000      -0.421625       -11.4730
  92   1.0000      -0.420169       -11.4334
  93   1.0000      -0.419776       -11.4227
  94   1.0000      -0.416757       -11.3405
  95   1.0000      -0.414189       -11.2706
  96   1.0000      -0.411148       -11.1879
  97   1.0000      -0.403966       -10.9925
  98   1.0000      -0.399100       -10.8601
  99   1.0000      -0.398688       -10.8488
 100   1.0000      -0.397389       -10.8135
 101   1.0000      -0.392088       -10.6693
 102   1.0000      -0.390060       -10.6141
 103   1.0000      -0.386179       -10.5085
 104   1.0000      -0.381366       -10.3775
 105   1.0000      -0.380010       -10.3406
 106   1.0000      -0.375097       -10.2069
 107   1.0000      -0.374167       -10.1816
 108   1.0000      -0.372650       -10.1403
 109   1.0000      -0.371677       -10.1138
 110   1.0000      -0.369849       -10.0641
 111   1.0000      -0.369648       -10.0586
 112   1.0000      -0.369146       -10.0450
 113   1.0000      -0.367272        -9.9940
 114   1.0000      -0.366550        -9.9743
 115   1.0000      -0.365466        -9.9448
 116   1.0000      -0.365320        -9.9409
 117   1.0000      -0.362477        -9.8635
 118   1.0000      -0.360821        -9.8184
 119   1.0000      -0.360067        -9.7979
 120   1.0000      -0.356343        -9.6966
 121   1.0000      -0.355694        -9.6789
 122   1.0000      -0.355112        -9.6631
 123   1.0000      -0.354718        -9.6524
 124   1.0000      -0.353325        -9.6145
 125   1.0000      -0.352345        -9.5878
 126   1.0000      -0.349604        -9.5132
 127   1.0000      -0.347533        -9.4569
 128   1.0000      -0.346626        -9.4322
 129   1.0000      -0.345738        -9.4080
 130   1.0000      -0.344225        -9.3668
 131   1.0000      -0.343103        -9.3363
 132   1.0000      -0.342983        -9.3330
 133   1.0000      -0.333913        -9.0862
 134   1.0000      -0.329512        -8.9665
 135   1.0000      -0.322136        -8.7658
 136   1.0000      -0.321756        -8.7554
 137   1.0000      -0.320067        -8.7095
 138   1.0000      -0.316564        -8.6142
 139   1.0000      -0.315035        -8.5725
 140   1.0000      -0.256721        -6.9857
 141   1.0000      -0.237270        -6.4564
 142   1.0000      -0.221197        -6.0191
 143   1.0000      -0.216665        -5.8958
 144   1.0000      -0.198983        -5.4146
 145   0.0000      -0.086771        -2.3612
 146   0.0000      -0.079466        -2.1624
 147   0.0000      -0.053473        -1.4551
 148   0.0000      -0.052545        -1.4298
 149   0.0000      -0.048357        -1.3159

MULLIKEN ATOMIC CHARGES AND SPIN POPULATIONS
--------------------------------------------
   0 Au:   -0.037909    0.013552
   1 Au:    0.221250   -0.158220
   2 Au:    0.362726   -0.228002
   3 Au:    0.221811   -0.157571
   4 Au:    0.362648   -0.228226
   5 Au:   -0.036973    0.008471
   6 Au:    0.405548    0.088479
   7 Au:    0.005251   -0.160353
   8 Au:    0.301825   -0.308520
   9 Au:    0.007053   -0.164996
  10 Au:    0.300625   -0.308434
  11 Au:   -0.038261    0.012378
  12 Au:    0.404173    0.088612
  13 Au:   -0.035954    0.007889
  14 Fe:   -2.443813    3.494941
Sum of atomic charges         :   -0.0000000

LOEWDIN ATOMIC CHARGES AND SPIN POPULATIONS
-------------------------------------------
   0 Au:   -0.050440   -0.045612
   1 Au:    0.064081   -0.142335
   2 Au:    0.058950   -0.181412
   3 Au:    0.063340   -0.141400
   4 Au:    0.058786   -0.181521
   5 Au:   -0.050092   -0.048160
   6 Au:    0.134664    0.041875
   7 Au:   -0.026994   -0.140970
   8 Au:    0.086000   -0.218763
   9 Au:   -0.026675   -0.143345
  10 Au:    0.085760   -0.218762
  11 Au:   -0.050193   -0.046779
  12 Au:    0.133606    0.042570
  13 Au:   -0.049771   -0.048820
  14 Fe:   -0.431022    3.473433

  Mayer bond orders larger than 0.100000
B(  0-Au,  1-Au) :   0.1860 B(  0-Au,  2-Au) :   0.2107 B(  0-Au,  5-Au) :   0.1224
B(  0-Au,  6-Au) :   0.2703 B(  0-Au,  9-Au) :   0.1881 B(  0-Au, 10-Au) :   0.1522
B(  0-Au, 14-Fe) :   0.3927 B(  1-Au,  2-Au) :   0.1548 B(  1-Au,  4-Au) :   0.1556
B(  1-Au,  5-Au) :   0.1870 B(  1-Au, 14-Fe) :   0.4572 B(  2-Au,  3-Au) :   0.1556
B(  2-Au, 13-Au) :   0.2094 B(  2-Au, 14-Fe) :   0.4325 B(  3-Au,  4-Au) :   0.1547
B(  3-Au, 11-Au) :   0.1847 B(  3-Au, 13-Au) :   0.1862 B(  3-Au, 14-Fe) :   0.4586
B(  4-Au,  5-Au) :   0.2101 B(  4-Au, 11-Au) :   0.2101 B(  4-Au, 14-Fe) :   0.4317
B(  5-Au,  6-Au) :   0.2708 B(  5-Au,  8-Au) :   0.1501 B(  5-Au,  9-Au) :   0.1885
B(  5-Au, 14-Fe) :   0.3927 B(  6-Au,  9-Au) :   0.4014 B(  7-Au,  9-Au) :   0.3732
B(  7-Au, 10-Au) :   0.1010 B(  7-Au, 11-Au) :   0.1883 B(  7-Au, 12-Au) :   0.4050
B(  7-Au, 13-Au) :   0.1891 B(  7-Au, 14-Fe) :   0.3873 B(  8-Au,  9-Au) :   0.1014
B(  8-Au, 11-Au) :   0.1535 B(  8-Au, 14-Fe) :   0.4881 B(  9-Au, 10-Au) :   0.1007
B(  9-Au, 14-Fe) :   0.3853 B( 10-Au, 13-Au) :   0.1521 B( 10-Au, 14-Fe) :   0.4878
B( 11-Au, 12-Au) :   0.2691 B( 11-Au, 13-Au) :   0.1224 B( 11-Au, 14-Fe) :   0.3909
B( 12-Au, 13-Au) :   0.2693 B( 13-Au, 14-Fe) :   0.3908

MP2 TOTAL ENERGY:    -3161.732441809 Eh
FINAL SINGLE POINT ENERGY     -3161.732441808583

DIPOLE MOMENT
-------------
                                X             Y             Z
Electronic contribution:     -7.80480       0.79847      -3.70251
Nuclear contribution   :      7.72149      -0.78612       3.65787
                        -----------------------------------------
Total Dipole Moment    :     -0.08330       0.01235      -0.04465
                        -----------------------------------------
Magnitude (a.u.)       :      0.09532
Magnitude (Debye)      :      0.24228

Rotational constants in cm-1:     0.001338     0.000915     0.000900
Rotational constants in MHz :    40.114543    27.436292    26.994491

                             ****ORCA TERMINATED NORMALLY****
TOTAL RUN TIME: 0 days 0 hours 24 minutes 32 seconds 318 msec
