                         Program Version 5.0.3 -  RELEASE  -
|  1> !R2SCAN def2-TZVP VERYSLOWCONV
|  2>
|  3> %pal nprocs 6 end
|  4>
|  5> *xyzfile 0 5 pbe.xyz
|  6>
|  7> $new_job
|  8>
|  9> !R2SCAN def2-TZVP VERYSLOWCONV
| 10> %scf
| 11>   AutoTRAHIter 200
| 12>   maxiter 400
| 13> end
| 14>
| 15>
| 16> %pal nprocs 6 end
| 17>
| 18> *xyzfile 0 3 pbe.xyz
| 19>
| 20>
| 21>
| 22>
| 23>
| 24>                          ****END OF INPUT****
 Total Charge           Charge          ....    0
 Multiplicity           Mult            ....    5
 Number of Electrons    NEL             ....  292
FINAL SINGLE POINT ENERGY     -3165.566354661323

CARTESIAN COORDINATES (ANGSTROEM)
---------------------------------
  Au     7.882320   10.619084    6.640926
  Au     9.861667    8.702974    7.113971
  Au     8.171476    9.552892    9.228592
  Au     8.506644    6.744903    9.481274
  Au     8.973009    6.031194    6.772807
  Au     8.480715    7.971828    4.795960
  Au     7.445212   10.379291    3.923804
  Au     4.578795    7.354028    7.333452
  Au     6.391993    6.194714    5.446528
  Au     5.673309    8.960066    5.382138
  Au     5.543308    9.948545    8.059297
  Au     6.615412    5.234976    8.082704
  Au     4.306681    5.771331    9.501042
  Au     6.006924    7.903649    9.941733
  Fe     7.233493    7.934372    7.360396

 Multiplicity           Mult            ....    3
 Number of Electrons    NEL             ....  292
 Basis Dimension        Dim             ....  605

ORBITAL ENERGIES
----------------
                 SPIN UP ORBITALS
  NO   OCC          E(Eh)            E(eV)
   0   1.0000    -255.629004     -6956.0188
   1   1.0000     -29.924853      -814.2967
   2   1.0000     -25.761973      -701.0189
   3   1.0000     -25.760216      -700.9711
   4   1.0000     -25.744396      -700.5406
   5   1.0000      -4.128784      -112.3499
   6   1.0000      -4.128601      -112.3449
   7   1.0000      -4.125497      -112.2605
   8   1.0000      -4.125454      -112.2593
   9   1.0000      -4.120838      -112.1337
  10   1.0000      -4.120830      -112.1335
  11   1.0000      -4.112155      -111.8974
  12   1.0000      -4.112020      -111.8938
  13   1.0000      -4.111980      -111.8927
  14   1.0000      -4.111774      -111.8870
  15   1.0000      -4.111116      -111.8692
  16   1.0000      -4.111061      -111.8677
  17   1.0000      -4.105513      -111.7167
  18   1.0000      -4.105316      -111.7113
  19   1.0000      -3.503983       -95.3482
  20   1.0000      -2.320698       -63.1494
  21   1.0000      -2.316763       -63.0423
  22   1.0000      -2.314022       -62.9677
  23   1.0000      -2.313879       -62.9639
  24   1.0000      -2.313574       -62.9555
  25   1.0000      -2.312996       -62.9398
  26   1.0000      -2.312140       -62.9165
  27   1.0000      -2.311135       -62.8892
  28   1.0000      -2.311023       -62.8861
  29   1.0000      -2.310945       -62.8840
  30   1.0000      -2.310347       -62.8677
  31   1.0000      -2.310230       -62.8646
  32   1.0000      -2.309440       -62.8431
  33   1.0000      -2.309193       -62.8363
  34   1.0000      -2.305912       -62.7471
  35   1.0000      -2.305721       -62.7419
  36   1.0000      -2.305331       -62.7312
  37   1.0000      -2.305089       -62.7247
  38   1.0000      -2.300808       -62.6082
  39   1.0000      -2.300542       -62.6009
  40   1.0000      -2.300349       -62.5957
  41   1.0000      -2.300002       -62.5862
  42   1.0000      -2.299210       -62.5647
  43   1.0000      -2.299111       -62.5620
  44   1.0000      -2.297779       -62.5258
  45   1.0000      -2.297704       -62.5237
  46   1.0000      -2.296941       -62.5029
  47   1.0000      -2.296709       -62.4966
  48   1.0000      -2.296168       -62.4819
  49   1.0000      -2.296073       -62.4793
  50   1.0000      -2.296017       -62.4778
  51   1.0000      -2.295879       -62.4740
  52   1.0000      -2.294750       -62.4433
  53   1.0000      -2.294594       -62.4391
  54   1.0000      -2.293955       -62.4217
  55   1.0000      -2.293778       -62.4169
  56   1.0000      -2.293568       -62.4112
  57   1.0000      -2.293394       -62.4064
  58   1.0000      -2.289196       -62.2922
  59   1.0000      -2.288950       -62.2855
  60   1.0000      -2.288927       -62.2849
  61   1.0000      -2.288812       -62.2817
  62   1.0000      -2.282590       -62.1124
  63   1.0000      -2.278652       -62.0053
  64   1.0000      -2.246319       -61.1254
  65   1.0000      -0.445612       -12.1257
  66   1.0000      -0.401569       -10.9273
  67   1.0000      -0.392490       -10.6802
  68   1.0000      -0.390047       -10.6137
  69   1.0000      -0.387638       -10.5482
  70   1.0000      -0.387254       -10.5377
  71   1.0000      -0.385336       -10.4855
  72   1.0000      -0.382158       -10.3990
  73   1.0000      -0.379371       -10.3232
  74   1.0000      -0.367900       -10.0111
  75   1.0000      -0.361810        -9.8454
  76   1.0000      -0.361019        -9.8238
  77   1.0000      -0.360829        -9.8186
  78   1.0000      -0.358578        -9.7574
  79   1.0000      -0.356987        -9.7141
  80   1.0000      -0.356496        -9.7008
  81   1.0000      -0.353308        -9.6140
  82   1.0000      -0.350809        -9.5460
  83   1.0000      -0.348927        -9.4948
  84   1.0000      -0.346349        -9.4246
  85   1.0000      -0.344094        -9.3633
  86   1.0000      -0.341755        -9.2996
  87   1.0000      -0.341047        -9.2804
  88   1.0000      -0.338578        -9.2132
  89   1.0000      -0.335861        -9.1392
  90   1.0000      -0.332020        -9.0347
  91   1.0000      -0.331220        -9.0130
  92   1.0000      -0.328462        -8.9379
  93   1.0000      -0.327620        -8.9150
  94   1.0000      -0.325816        -8.8659
  95   1.0000      -0.322365        -8.7720
  96   1.0000      -0.320699        -8.7267
  97   1.0000      -0.316583        -8.6147
  98   1.0000      -0.316005        -8.5989
  99   1.0000      -0.314672        -8.5627
 100   1.0000      -0.308828        -8.4036
 101   1.0000      -0.308218        -8.3870
 102   1.0000      -0.304248        -8.2790
 103   1.0000      -0.299483        -8.1493
 104   1.0000      -0.296769        -8.0755
 105   1.0000      -0.294604        -8.0166
 106   1.0000      -0.291555        -7.9336
 107   1.0000      -0.288304        -7.8451
 108   1.0000      -0.283961        -7.7270
 109   1.0000      -0.283939        -7.7264
 110   1.0000      -0.283138        -7.7046
 111   1.0000      -0.281821        -7.6687
 112   1.0000      -0.281600        -7.6627
 113   1.0000      -0.279734        -7.6119
 114   1.0000      -0.279715        -7.6114
 115   1.0000      -0.277808        -7.5595
 116   1.0000      -0.275657        -7.5010
 117   1.0000      -0.274694        -7.4748
 118   1.0000      -0.274451        -7.4682
 119   1.0000      -0.274394        -7.4666
 120   1.0000      -0.270702        -7.3662
 121   1.0000      -0.268700        -7.3117
 122   1.0000      -0.268113        -7.2957
 123   1.0000      -0.267985        -7.2922
 124   1.0000      -0.265349        -7.2205
 125   1.0000      -0.265270        -7.2184
 126   1.0000      -0.265092        -7.2135
 127   1.0000      -0.263975        -7.1831
 128   1.0000      -0.263755        -7.1771
 129   1.0000      -0.262949        -7.1552
 130   1.0000      -0.261926        -7.1274
 131   1.0000      -0.260614        -7.0917
 132   1.0000      -0.259098        -7.0504
 133   1.0000      -0.257601        -7.0097
 134   1.0000      -0.257422        -7.0048
 135   1.0000      -0.254565        -6.9271
 136   1.0000      -0.253787        -6.9059
 137   1.0000      -0.253352        -6.8940
 138   1.0000      -0.247660        -6.7392
 139   1.0000      -0.247457        -6.7337
 140   1.0000      -0.243518        -6.6265
 141   1.0000      -0.241851        -6.5811
 142   1.0000      -0.240187        -6.5358
 143   1.0000      -0.239915        -6.5284
 144   1.0000      -0.219831        -5.9819
 145   1.0000      -0.204875        -5.5749
 146   1.0000      -0.190955        -5.1962
 147   0.0000      -0.181201        -4.9307
 148   0.0000      -0.179250        -4.8776
 149   0.0000      -0.134810        -3.6684
 150   0.0000      -0.134550        -3.6613
 151   0.0000      -0.116274        -3.1640

                 SPIN DOWN ORBITALS
  NO   OCC          E(Eh)            E(eV)
   0   1.0000    -255.628056     -6955.9930
   1   1.0000     -29.849350      -812.2421
   2   1.0000     -25.701090      -699.3622
   3   1.0000     -25.700711      -699.3519
   4   1.0000     -25.692018      -699.1153
   5   1.0000      -4.128750      -112.3490
   6   1.0000      -4.128563      -112.3439
   7   1.0000      -4.125567      -112.2624
   8   1.0000      -4.125526      -112.2613
   9   1.0000      -4.121302      -112.1463
  10   1.0000      -4.121291      -112.1460
  11   1.0000      -4.112973      -111.9197
  12   1.0000      -4.112843      -111.9161
  13   1.0000      -4.112803      -111.9151
  14   1.0000      -4.112604      -111.9096
  15   1.0000      -4.111468      -111.8787
  16   1.0000      -4.111400      -111.8769
  17   1.0000      -4.105897      -111.7271
  18   1.0000      -4.105688      -111.7214
  19   1.0000      -3.336412       -90.7884
  20   1.0000      -2.320493       -63.1438
  21   1.0000      -2.316511       -63.0355
  22   1.0000      -2.313280       -62.9475
  23   1.0000      -2.313228       -62.9461
  24   1.0000      -2.312663       -62.9308
  25   1.0000      -2.312586       -62.9287
  26   1.0000      -2.312125       -62.9161
  27   1.0000      -2.311653       -62.9033
  28   1.0000      -2.310996       -62.8854
  29   1.0000      -2.310905       -62.8829
  30   1.0000      -2.310432       -62.8701
  31   1.0000      -2.310388       -62.8689
  32   1.0000      -2.309461       -62.8436
  33   1.0000      -2.309188       -62.8362
  34   1.0000      -2.306138       -62.7532
  35   1.0000      -2.306069       -62.7513
  36   1.0000      -2.305962       -62.7484
  37   1.0000      -2.305837       -62.7450
  38   1.0000      -2.301892       -62.6377
  39   1.0000      -2.301666       -62.6315
  40   1.0000      -2.301495       -62.6269
  41   1.0000      -2.301206       -62.6190
  42   1.0000      -2.299346       -62.5684
  43   1.0000      -2.299229       -62.5652
  44   1.0000      -2.298644       -62.5493
  45   1.0000      -2.298525       -62.5460
  46   1.0000      -2.297761       -62.5253
  47   1.0000      -2.297548       -62.5195
  48   1.0000      -2.296886       -62.5014
  49   1.0000      -2.296760       -62.4980
  50   1.0000      -2.296381       -62.4877
  51   1.0000      -2.296209       -62.4830
  52   1.0000      -2.295189       -62.4553
  53   1.0000      -2.295032       -62.4510
  54   1.0000      -2.294517       -62.4370
  55   1.0000      -2.294334       -62.4320
  56   1.0000      -2.294061       -62.4246
  57   1.0000      -2.293880       -62.4196
  58   1.0000      -2.289594       -62.3030
  59   1.0000      -2.289440       -62.2988
  60   1.0000      -2.289424       -62.2984
  61   1.0000      -2.289145       -62.2908
  62   1.0000      -2.111110       -57.4462
  63   1.0000      -2.110163       -57.4205
  64   1.0000      -2.092583       -56.9421
  65   1.0000      -0.443537       -12.0693
  66   1.0000      -0.400347       -10.8940
  67   1.0000      -0.393998       -10.7212
  68   1.0000      -0.390588       -10.6285
  69   1.0000      -0.383952       -10.4479
  70   1.0000      -0.377607       -10.2752
  71   1.0000      -0.377271       -10.2661
  72   1.0000      -0.375880       -10.2282
  73   1.0000      -0.369779       -10.0622
  74   1.0000      -0.366234        -9.9657
  75   1.0000      -0.361349        -9.8328
  76   1.0000      -0.361177        -9.8281
  77   1.0000      -0.361041        -9.8244
  78   1.0000      -0.359247        -9.7756
  79   1.0000      -0.358960        -9.7678
  80   1.0000      -0.357619        -9.7313
  81   1.0000      -0.354505        -9.6466
  82   1.0000      -0.351019        -9.5517
  83   1.0000      -0.347863        -9.4658
  84   1.0000      -0.345835        -9.4106
  85   1.0000      -0.344931        -9.3861
  86   1.0000      -0.341822        -9.3014
  87   1.0000      -0.341450        -9.2913
  88   1.0000      -0.340796        -9.2735
  89   1.0000      -0.335849        -9.1389
  90   1.0000      -0.332216        -9.0401
  91   1.0000      -0.329973        -8.9790
  92   1.0000      -0.329815        -8.9747
  93   1.0000      -0.327600        -8.9144
  94   1.0000      -0.327497        -8.9116
  95   1.0000      -0.323705        -8.8085
  96   1.0000      -0.318456        -8.6656
  97   1.0000      -0.311686        -8.4814
  98   1.0000      -0.310430        -8.4472
  99   1.0000      -0.306943        -8.3523
 100   1.0000      -0.306246        -8.3334
 101   1.0000      -0.301769        -8.2116
 102   1.0000      -0.301525        -8.2049
 103   1.0000      -0.296109        -8.0575
 104   1.0000      -0.293961        -7.9991
 105   1.0000      -0.290725        -7.9110
 106   1.0000      -0.286819        -7.8047
 107   1.0000      -0.285015        -7.7557
 108   1.0000      -0.284529        -7.7424
 109   1.0000      -0.284109        -7.7310
 110   1.0000      -0.282246        -7.6803
 111   1.0000      -0.281162        -7.6508
 112   1.0000      -0.280610        -7.6358
 113   1.0000      -0.279608        -7.6085
 114   1.0000      -0.279515        -7.6060
 115   1.0000      -0.276508        -7.5242
 116   1.0000      -0.276153        -7.5145
 117   1.0000      -0.275266        -7.4904
 118   1.0000      -0.274951        -7.4818
 119   1.0000      -0.273860        -7.4521
 120   1.0000      -0.270525        -7.3614
 121   1.0000      -0.268693        -7.3115
 122   1.0000      -0.268015        -7.2930
 123   1.0000      -0.267558        -7.2806
 124   1.0000      -0.266703        -7.2574
 125   1.0000      -0.266363        -7.2481
 126   1.0000      -0.264940        -7.2094
 127   1.0000      -0.264431        -7.1955
 128   1.0000      -0.261452        -7.1145
 129   1.0000      -0.261191        -7.1074
 130   1.0000      -0.258823        -7.0429
 131   1.0000      -0.257651        -7.0110
 132   1.0000      -0.256373        -6.9763
 133   1.0000      -0.254292        -6.9196
 134   1.0000      -0.250890        -6.8271
 135   1.0000      -0.250813        -6.8250
 136   1.0000      -0.243607        -6.6289
 137   1.0000      -0.242421        -6.5966
 138   1.0000      -0.241871        -6.5817
 139   1.0000      -0.230540        -6.2733
 140   1.0000      -0.212840        -5.7917
 141   1.0000      -0.202209        -5.5024
 142   1.0000      -0.201280        -5.4771
 143   1.0000      -0.200600        -5.4586
 144   1.0000      -0.175338        -4.7712
 145   0.0000      -0.147031        -4.0009
 146   0.0000      -0.145267        -3.9529
 147   0.0000      -0.141818        -3.8591
 148   0.0000      -0.133332        -3.6281
 149   0.0000      -0.122320        -3.3285

MULLIKEN ATOMIC CHARGES AND SPIN POPULATIONS
--------------------------------------------
   0 Au:   -0.011706    0.010354
   1 Au:    0.236119   -0.091810
   2 Au:    0.375581   -0.138787
   3 Au:    0.236534   -0.091613
   4 Au:    0.375493   -0.138812
   5 Au:   -0.010390    0.007603
   6 Au:    0.376936   -0.012057
   7 Au:    0.044532   -0.062581
   8 Au:    0.319569   -0.201849
   9 Au:    0.047494   -0.065490
  10 Au:    0.318686   -0.201709
  11 Au:   -0.012519    0.009532
  12 Au:    0.375768   -0.011287
  13 Au:   -0.010199    0.007244
  14 Fe:   -2.661899    2.981262
Sum of atomic charges         :   -0.0000000

LOEWDIN ATOMIC CHARGES AND SPIN POPULATIONS
-------------------------------------------
   0 Au:   -0.032082   -0.047805
   1 Au:    0.083285   -0.089881
   2 Au:    0.087423   -0.111809
   3 Au:    0.082828   -0.089299
   4 Au:    0.087318   -0.111858
   5 Au:   -0.031412   -0.048912
   6 Au:    0.104620   -0.008225
   7 Au:    0.006642   -0.078706
   8 Au:    0.114852   -0.141317
   9 Au:    0.007082   -0.080140
  10 Au:    0.114699   -0.141267
  11 Au:   -0.031910   -0.048618
  12 Au:    0.103559   -0.007361
  13 Au:   -0.031205   -0.049329
  14 Fe:   -0.665700    3.054527

  Mayer bond orders larger than 0.100000
B(  0-Au,  1-Au) :   0.2116 B(  0-Au,  2-Au) :   0.2264 B(  0-Au,  6-Au) :   0.2969
B(  0-Au,  9-Au) :   0.1673 B(  0-Au, 10-Au) :   0.1739 B(  0-Au, 14-Fe) :   0.3708
B(  1-Au,  2-Au) :   0.1675 B(  1-Au,  4-Au) :   0.1683 B(  1-Au,  5-Au) :   0.2127
B(  1-Au, 14-Fe) :   0.4936 B(  2-Au,  3-Au) :   0.1678 B(  2-Au, 10-Au) :   0.1059
B(  2-Au, 13-Au) :   0.2251 B(  2-Au, 14-Fe) :   0.4746 B(  3-Au,  4-Au) :   0.1671
B(  3-Au, 11-Au) :   0.2105 B(  3-Au, 13-Au) :   0.2122 B(  3-Au, 14-Fe) :   0.4954
B(  4-Au,  5-Au) :   0.2259 B(  4-Au,  8-Au) :   0.1049 B(  4-Au, 11-Au) :   0.2264
B(  4-Au, 14-Fe) :   0.4743 B(  5-Au,  6-Au) :   0.2972 B(  5-Au,  8-Au) :   0.1717
B(  5-Au,  9-Au) :   0.1679 B(  5-Au, 14-Fe) :   0.3730 B(  6-Au,  9-Au) :   0.4312
B(  7-Au,  8-Au) :   0.1276 B(  7-Au,  9-Au) :   0.3720 B(  7-Au, 10-Au) :   0.1292
B(  7-Au, 11-Au) :   0.1673 B(  7-Au, 12-Au) :   0.4340 B(  7-Au, 13-Au) :   0.1689
B(  7-Au, 14-Fe) :   0.4224 B(  8-Au,  9-Au) :   0.1300 B(  8-Au, 11-Au) :   0.1755
B(  8-Au, 14-Fe) :   0.5416 B(  9-Au, 10-Au) :   0.1294 B(  9-Au, 14-Fe) :   0.4212
B( 10-Au, 13-Au) :   0.1732 B( 10-Au, 14-Fe) :   0.5412 B( 11-Au, 12-Au) :   0.2961
B( 11-Au, 14-Fe) :   0.3690 B( 12-Au, 13-Au) :   0.2960 B( 13-Au, 14-Fe) :   0.3712

FINAL SINGLE POINT ENERGY     -3165.558244166307

DIPOLE MOMENT
-------------
                                X             Y             Z
Electronic contribution:     -7.81653       0.80027      -3.70776
Nuclear contribution   :      7.72149      -0.78612       3.65787
                        -----------------------------------------
Total Dipole Moment    :     -0.09504       0.01415      -0.04990
                        -----------------------------------------
Magnitude (a.u.)       :      0.10827
Magnitude (Debye)      :      0.27519

Rotational constants in cm-1:     0.001338     0.000915     0.000900
Rotational constants in MHz :    40.114543    27.436292    26.994491

                             ****ORCA TERMINATED NORMALLY****
TOTAL RUN TIME: 0 days 0 hours 21 minutes 22 seconds 128 msec
