                         Program Version 5.0.3 -  RELEASE  -
|  1> %pal nprocs 16 end
|  2>
|  3> !PBE def2-TZVP OPT UNO
|  4> !SLOWCONV
|  5>
|  6> *xyzfile 0 5 0-2.xyz
|  7>
|  8>                          ****END OF INPUT****
 Total Charge           Charge          ....    0
 Multiplicity           Mult            ....    5
 Number of Electrons    NEL             ....  310
FINAL SINGLE POINT ENERGY     -3188.222659056763
FINAL SINGLE POINT ENERGY     -3188.222781540730
FINAL SINGLE POINT ENERGY     -3188.222887001282
FINAL SINGLE POINT ENERGY     -3188.222971832095
FINAL SINGLE POINT ENERGY     -3188.223068432798
FINAL SINGLE POINT ENERGY     -3188.223172124020
FINAL SINGLE POINT ENERGY     -3188.223302629570
FINAL SINGLE POINT ENERGY     -3188.223489095651
FINAL SINGLE POINT ENERGY     -3188.223711207747
FINAL SINGLE POINT ENERGY     -3188.223875628768
FINAL SINGLE POINT ENERGY     -3188.224725972505
FINAL SINGLE POINT ENERGY     -3188.224746852236
FINAL SINGLE POINT ENERGY     -3188.224782118750
FINAL SINGLE POINT ENERGY     -3188.224820336739
FINAL SINGLE POINT ENERGY     -3188.224860547517
FINAL SINGLE POINT ENERGY     -3188.224891428892
FINAL SINGLE POINT ENERGY     -3188.224909653006
FINAL SINGLE POINT ENERGY     -3188.224917385899
FINAL SINGLE POINT ENERGY     -3188.224922037245
                    ***********************HURRAY********************

CARTESIAN COORDINATES (ANGSTROEM)
---------------------------------
  Au     9.035218    8.857150    7.207205
  Au     7.408683   11.124875    7.419177
  Au     8.258792   10.017125    9.753834
  Au     5.661752    9.141089   10.619109
  Au    10.063971    7.867437    9.685446
  Au     8.404744    5.603400    9.618422
  Au     7.980085    7.850705   11.481868
  Au    10.016843    6.245795    7.437085
  Au     5.946672    6.142988   10.782602
  Au     7.637007    6.535665    6.149602
  Au     5.073540    9.679987    7.901873
  Au     6.653382    9.121149    5.653835
  Au     6.033720    5.202430    8.126405
  Au     4.926415    7.126929    6.440993
  Au     4.140659    7.344129    9.067523
  Mn     6.954711    7.757711    8.615944

 Multiplicity           Mult            ....    5
 Number of Electrons    NEL             ....  310
 Basis Dimension        Dim             ....  645

ORBITAL ENERGIES
----------------
                 SPIN UP ORBITALS
  NO   OCC          E(Eh)            E(eV)
   0   1.0000    -234.208371     -6373.1338
   1   1.0000     -26.901334      -732.0225
   2   1.0000     -23.049952      -627.2211
   3   1.0000     -23.049923      -627.2203
   4   1.0000     -23.049350      -627.2047
   5   1.0000      -4.043131      -110.0192
   6   1.0000      -4.033160      -109.7479
   7   1.0000      -4.033150      -109.7476
   8   1.0000      -4.032723      -109.7360
   9   1.0000      -4.032575      -109.7319
  10   1.0000      -4.032338      -109.7255
  11   1.0000      -4.032160      -109.7207
  12   1.0000      -4.029846      -109.6577
  13   1.0000      -4.029742      -109.6548
  14   1.0000      -4.028396      -109.6182
  15   1.0000      -4.028342      -109.6168
  16   1.0000      -4.025550      -109.5408
  17   1.0000      -4.025335      -109.5349
  18   1.0000      -4.024779      -109.5198
  19   1.0000      -4.024645      -109.5162
  20   1.0000      -3.113161       -84.7134
  21   1.0000      -2.257586       -61.4320
  22   1.0000      -2.256777       -61.4100
  23   1.0000      -2.253757       -61.3278
  24   1.0000      -2.249816       -61.2206
  25   1.0000      -2.249626       -61.2154
  26   1.0000      -2.248181       -61.1761
  27   1.0000      -2.248099       -61.1739
  28   1.0000      -2.247900       -61.1685
  29   1.0000      -2.246572       -61.1323
  30   1.0000      -2.246145       -61.1207
  31   1.0000      -2.245863       -61.1130
  32   1.0000      -2.245753       -61.1101
  33   1.0000      -2.245710       -61.1089
  34   1.0000      -2.245085       -61.0919
  35   1.0000      -2.244999       -61.0895
  36   1.0000      -2.244915       -61.0873
  37   1.0000      -2.244751       -61.0828
  38   1.0000      -2.244631       -61.0795
  39   1.0000      -2.244297       -61.0704
  40   1.0000      -2.243849       -61.0582
  41   1.0000      -2.243224       -61.0412
  42   1.0000      -2.243175       -61.0399
  43   1.0000      -2.242970       -61.0343
  44   1.0000      -2.242773       -61.0290
  45   1.0000      -2.242557       -61.0231
  46   1.0000      -2.242427       -61.0195
  47   1.0000      -2.242253       -61.0148
  48   1.0000      -2.240794       -60.9751
  49   1.0000      -2.240648       -60.9711
  50   1.0000      -2.240486       -60.9667
  51   1.0000      -2.240210       -60.9592
  52   1.0000      -2.239984       -60.9531
  53   1.0000      -2.239850       -60.9494
  54   1.0000      -2.239259       -60.9333
  55   1.0000      -2.239166       -60.9308
  56   1.0000      -2.238239       -60.9056
  57   1.0000      -2.237986       -60.8987
  58   1.0000      -2.237458       -60.8843
  59   1.0000      -2.237426       -60.8835
  60   1.0000      -2.237296       -60.8799
  61   1.0000      -2.237178       -60.8767
  62   1.0000      -2.236303       -60.8529
  63   1.0000      -2.236131       -60.8482
  64   1.0000      -2.235855       -60.8407
  65   1.0000      -2.235718       -60.8370
  66   1.0000      -2.016446       -54.8703
  67   1.0000      -2.016272       -54.8656
  68   1.0000      -2.014893       -54.8280
  69   1.0000      -0.439156       -11.9500
  70   1.0000      -0.394886       -10.7454
  71   1.0000      -0.394122       -10.7246
  72   1.0000      -0.385868       -10.5000
  73   1.0000      -0.379623       -10.3301
  74   1.0000      -0.378801       -10.3077
  75   1.0000      -0.374420       -10.1885
  76   1.0000      -0.372629       -10.1397
  77   1.0000      -0.369708       -10.0603
  78   1.0000      -0.367189        -9.9917
  79   1.0000      -0.362143        -9.8544
  80   1.0000      -0.361610        -9.8399
  81   1.0000      -0.356613        -9.7039
  82   1.0000      -0.356386        -9.6978
  83   1.0000      -0.356118        -9.6905
  84   1.0000      -0.355515        -9.6741
  85   1.0000      -0.353142        -9.6095
  86   1.0000      -0.351571        -9.5667
  87   1.0000      -0.351279        -9.5588
  88   1.0000      -0.348859        -9.4929
  89   1.0000      -0.347823        -9.4647
  90   1.0000      -0.343778        -9.3547
  91   1.0000      -0.343641        -9.3510
  92   1.0000      -0.341608        -9.2956
  93   1.0000      -0.334790        -9.1101
  94   1.0000      -0.334183        -9.0936
  95   1.0000      -0.333588        -9.0774
  96   1.0000      -0.329422        -8.9640
  97   1.0000      -0.328663        -8.9434
  98   1.0000      -0.327026        -8.8988
  99   1.0000      -0.325473        -8.8566
 100   1.0000      -0.323761        -8.8100
 101   1.0000      -0.318478        -8.6662
 102   1.0000      -0.316070        -8.6007
 103   1.0000      -0.313525        -8.5314
 104   1.0000      -0.312629        -8.5071
 105   1.0000      -0.309298        -8.4164
 106   1.0000      -0.307767        -8.3748
 107   1.0000      -0.306060        -8.3283
 108   1.0000      -0.300552        -8.1784
 109   1.0000      -0.296691        -8.0734
 110   1.0000      -0.296256        -8.0615
 111   1.0000      -0.292166        -7.9503
 112   1.0000      -0.291184        -7.9235
 113   1.0000      -0.289427        -7.8757
 114   1.0000      -0.288628        -7.8540
 115   1.0000      -0.284055        -7.7295
 116   1.0000      -0.283588        -7.7168
 117   1.0000      -0.281514        -7.6604
 118   1.0000      -0.280315        -7.6277
 119   1.0000      -0.277703        -7.5567
 120   1.0000      -0.277491        -7.5509
 121   1.0000      -0.275997        -7.5103
 122   1.0000      -0.273624        -7.4457
 123   1.0000      -0.272962        -7.4277
 124   1.0000      -0.271492        -7.3877
 125   1.0000      -0.270279        -7.3547
 126   1.0000      -0.268277        -7.3002
 127   1.0000      -0.267371        -7.2755
 128   1.0000      -0.264427        -7.1954
 129   1.0000      -0.263566        -7.1720
 130   1.0000      -0.262610        -7.1460
 131   1.0000      -0.262293        -7.1374
 132   1.0000      -0.261640        -7.1196
 133   1.0000      -0.259870        -7.0714
 134   1.0000      -0.258652        -7.0383
 135   1.0000      -0.258025        -7.0212
 136   1.0000      -0.256300        -6.9743
 137   1.0000      -0.256088        -6.9685
 138   1.0000      -0.255310        -6.9473
 139   1.0000      -0.254182        -6.9166
 140   1.0000      -0.252615        -6.8740
 141   1.0000      -0.251966        -6.8563
 142   1.0000      -0.250977        -6.8294
 143   1.0000      -0.249409        -6.7868
 144   1.0000      -0.248310        -6.7569
 145   1.0000      -0.248098        -6.7511
 146   1.0000      -0.247536        -6.7358
 147   1.0000      -0.246402        -6.7050
 148   1.0000      -0.244950        -6.6654
 149   1.0000      -0.244757        -6.6602
 150   1.0000      -0.242036        -6.5861
 151   1.0000      -0.239969        -6.5299
 152   1.0000      -0.233946        -6.3660
 153   1.0000      -0.218856        -5.9554
 154   1.0000      -0.212701        -5.7879
 155   1.0000      -0.204003        -5.5512
 156   1.0000      -0.201260        -5.4766
 157   0.0000      -0.190247        -5.1769
 158   0.0000      -0.155157        -4.2220
 159   0.0000      -0.130633        -3.5547
 160   0.0000      -0.128576        -3.4987
 161   0.0000      -0.125273        -3.4089

                 SPIN DOWN ORBITALS
  NO   OCC          E(Eh)            E(eV)
   0   1.0000    -234.207676     -6373.1149
   1   1.0000     -26.833660      -730.1810
   2   1.0000     -22.998865      -625.8309
   3   1.0000     -22.998855      -625.8307
   4   1.0000     -22.997381      -625.7906
   5   1.0000      -4.042784      -110.0097
   6   1.0000      -4.032783      -109.7376
   7   1.0000      -4.032669      -109.7345
   8   1.0000      -4.032564      -109.7317
   9   1.0000      -4.032527      -109.7306
  10   1.0000      -4.031890      -109.7133
  11   1.0000      -4.031731      -109.7090
  12   1.0000      -4.029428      -109.6463
  13   1.0000      -4.029312      -109.6432
  14   1.0000      -4.028511      -109.6213
  15   1.0000      -4.028462      -109.6200
  16   1.0000      -4.025724      -109.5455
  17   1.0000      -4.025584      -109.5417
  18   1.0000      -4.025442      -109.5378
  19   1.0000      -4.025376      -109.5360
  20   1.0000      -2.946893       -80.1890
  21   1.0000      -2.257317       -61.4247
  22   1.0000      -2.255843       -61.3846
  23   1.0000      -2.253818       -61.3295
  24   1.0000      -2.249539       -61.2131
  25   1.0000      -2.249156       -61.2027
  26   1.0000      -2.248162       -61.1756
  27   1.0000      -2.247718       -61.1635
  28   1.0000      -2.247527       -61.1583
  29   1.0000      -2.246624       -61.1337
  30   1.0000      -2.245796       -61.1112
  31   1.0000      -2.245577       -61.1053
  32   1.0000      -2.245031       -61.0904
  33   1.0000      -2.244958       -61.0884
  34   1.0000      -2.244864       -61.0858
  35   1.0000      -2.244736       -61.0824
  36   1.0000      -2.244421       -61.0738
  37   1.0000      -2.244325       -61.0712
  38   1.0000      -2.244177       -61.0672
  39   1.0000      -2.243933       -61.0605
  40   1.0000      -2.243591       -61.0512
  41   1.0000      -2.243038       -61.0362
  42   1.0000      -2.242881       -61.0319
  43   1.0000      -2.242737       -61.0280
  44   1.0000      -2.242620       -61.0248
  45   1.0000      -2.242372       -61.0180
  46   1.0000      -2.242204       -61.0135
  47   1.0000      -2.242018       -61.0084
  48   1.0000      -2.241038       -60.9818
  49   1.0000      -2.240998       -60.9807
  50   1.0000      -2.240441       -60.9655
  51   1.0000      -2.240339       -60.9627
  52   1.0000      -2.239893       -60.9506
  53   1.0000      -2.239754       -60.9468
  54   1.0000      -2.239293       -60.9343
  55   1.0000      -2.239144       -60.9302
  56   1.0000      -2.238856       -60.9224
  57   1.0000      -2.238739       -60.9192
  58   1.0000      -2.237783       -60.8932
  59   1.0000      -2.237651       -60.8896
  60   1.0000      -2.237533       -60.8864
  61   1.0000      -2.237436       -60.8837
  62   1.0000      -2.236930       -60.8700
  63   1.0000      -2.236736       -60.8647
  64   1.0000      -2.236337       -60.8538
  65   1.0000      -2.236130       -60.8482
  66   1.0000      -1.853883       -50.4467
  67   1.0000      -1.853469       -50.4354
  68   1.0000      -1.850444       -50.3531
  69   1.0000      -0.432962       -11.7815
  70   1.0000      -0.394431       -10.7330
  71   1.0000      -0.392895       -10.6912
  72   1.0000      -0.385389       -10.4870
  73   1.0000      -0.373883       -10.1739
  74   1.0000      -0.372327       -10.1315
  75   1.0000      -0.368910       -10.0385
  76   1.0000      -0.367890       -10.0108
  77   1.0000      -0.367701       -10.0057
  78   1.0000      -0.363862        -9.9012
  79   1.0000      -0.360454        -9.8084
  80   1.0000      -0.359607        -9.7854
  81   1.0000      -0.356764        -9.7080
  82   1.0000      -0.355857        -9.6834
  83   1.0000      -0.355230        -9.6663
  84   1.0000      -0.354857        -9.6561
  85   1.0000      -0.352954        -9.6044
  86   1.0000      -0.351514        -9.5652
  87   1.0000      -0.350443        -9.5360
  88   1.0000      -0.348854        -9.4928
  89   1.0000      -0.345954        -9.4139
  90   1.0000      -0.343272        -9.3409
  91   1.0000      -0.342936        -9.3318
  92   1.0000      -0.341525        -9.2934
  93   1.0000      -0.334381        -9.0990
  94   1.0000      -0.333454        -9.0737
  95   1.0000      -0.332266        -9.0414
  96   1.0000      -0.328077        -8.9274
  97   1.0000      -0.325541        -8.8584
  98   1.0000      -0.325423        -8.8552
  99   1.0000      -0.324285        -8.8243
 100   1.0000      -0.322184        -8.7671
 101   1.0000      -0.317641        -8.6435
 102   1.0000      -0.312595        -8.5061
 103   1.0000      -0.312138        -8.4937
 104   1.0000      -0.310288        -8.4434
 105   1.0000      -0.306025        -8.3274
 106   1.0000      -0.302036        -8.2188
 107   1.0000      -0.301669        -8.2088
 108   1.0000      -0.298776        -8.1301
 109   1.0000      -0.296386        -8.0651
 110   1.0000      -0.292860        -7.9691
 111   1.0000      -0.290876        -7.9151
 112   1.0000      -0.290763        -7.9121
 113   1.0000      -0.285994        -7.7823
 114   1.0000      -0.283223        -7.7069
 115   1.0000      -0.281578        -7.6621
 116   1.0000      -0.280892        -7.6435
 117   1.0000      -0.279976        -7.6185
 118   1.0000      -0.278430        -7.5765
 119   1.0000      -0.276885        -7.5344
 120   1.0000      -0.276805        -7.5323
 121   1.0000      -0.274384        -7.4664
 122   1.0000      -0.273817        -7.4509
 123   1.0000      -0.273144        -7.4326
 124   1.0000      -0.270339        -7.3563
 125   1.0000      -0.269720        -7.3395
 126   1.0000      -0.267960        -7.2916
 127   1.0000      -0.267428        -7.2771
 128   1.0000      -0.264155        -7.1880
 129   1.0000      -0.263494        -7.1700
 130   1.0000      -0.262116        -7.1325
 131   1.0000      -0.261309        -7.1106
 132   1.0000      -0.258836        -7.0433
 133   1.0000      -0.258569        -7.0360
 134   1.0000      -0.256576        -6.9818
 135   1.0000      -0.255292        -6.9468
 136   1.0000      -0.254808        -6.9337
 137   1.0000      -0.254137        -6.9154
 138   1.0000      -0.252670        -6.8755
 139   1.0000      -0.251014        -6.8304
 140   1.0000      -0.248690        -6.7672
 141   1.0000      -0.248480        -6.7615
 142   1.0000      -0.247148        -6.7252
 143   1.0000      -0.246983        -6.7208
 144   1.0000      -0.245401        -6.6777
 145   1.0000      -0.243557        -6.6275
 146   1.0000      -0.240851        -6.5539
 147   1.0000      -0.234356        -6.3772
 148   1.0000      -0.224977        -6.1219
 149   1.0000      -0.220148        -5.9905
 150   1.0000      -0.212801        -5.7906
 151   1.0000      -0.210883        -5.7384
 152   1.0000      -0.202327        -5.5056
 153   0.0000      -0.152780        -4.1574
 154   0.0000      -0.135665        -3.6916
 155   0.0000      -0.134628        -3.6634
 156   0.0000      -0.131869        -3.5883
 157   0.0000      -0.131384        -3.5751

MULLIKEN ATOMIC CHARGES AND SPIN POPULATIONS
--------------------------------------------
   0 Au:   -0.126600   -0.105225
   1 Au:    0.374302   -0.019360
   2 Au:    0.045797    0.020873
   3 Au:    0.248881    0.008983
   4 Au:    0.184049    0.007626
   5 Au:    0.050889   -0.001280
   6 Au:    0.253117    0.026975
   7 Au:    0.376950   -0.019355
   8 Au:    0.295537   -0.059445
   9 Au:    0.044675    0.021402
  10 Au:    0.055777   -0.000722
  11 Au:    0.186581    0.006109
  12 Au:    0.250529    0.008630
  13 Au:    0.256978    0.027197
  14 Au:    0.294613   -0.058469
  15 Mn:   -2.792077    4.136060
Sum of atomic charges         :    0.0000000

LOEWDIN ATOMIC CHARGES AND SPIN POPULATIONS
-------------------------------------------
   0 Au:   -0.011239   -0.032653
   1 Au:    0.085766   -0.046921
   2 Au:    0.012262   -0.004108
   3 Au:    0.069363   -0.019455
   4 Au:    0.015043    0.002695
   5 Au:    0.011553   -0.000571
   6 Au:    0.027902    0.010147
   7 Au:    0.086287   -0.047002
   8 Au:    0.053171   -0.041085
   9 Au:    0.013139   -0.003944
  10 Au:    0.011957   -0.000414
  11 Au:    0.016031    0.001690
  12 Au:    0.068999   -0.019787
  13 Au:    0.028997    0.010177
  14 Au:    0.053046   -0.040487
  15 Mn:   -0.542275    4.231717

  Mayer bond orders larger than 0.100000
B(  0-Au,  1-Au) :   0.3163 B(  0-Au,  2-Au) :   0.1949 B(  0-Au,  4-Au) :   0.2362
B(  0-Au,  7-Au) :   0.3161 B(  0-Au,  9-Au) :   0.1929 B(  0-Au, 11-Au) :   0.2364
B(  0-Au, 15-Mn) :   0.4194 B(  1-Au,  2-Au) :   0.3151 B(  1-Au, 10-Au) :   0.2710
B(  1-Au, 11-Au) :   0.2306 B(  1-Au, 15-Mn) :   0.1483 B(  2-Au,  3-Au) :   0.1439
B(  2-Au,  4-Au) :   0.2351 B(  2-Au,  6-Au) :   0.2079 B(  2-Au, 15-Mn) :   0.4321
B(  3-Au,  6-Au) :   0.2202 B(  3-Au,  8-Au) :   0.1132 B(  3-Au, 10-Au) :   0.1774
B(  3-Au, 14-Au) :   0.1901 B(  3-Au, 15-Mn) :   0.4819 B(  4-Au,  5-Au) :   0.2659
B(  4-Au,  6-Au) :   0.2657 B(  4-Au,  7-Au) :   0.2324 B(  4-Au, 15-Mn) :   0.2398
B(  5-Au,  6-Au) :   0.1668 B(  5-Au,  7-Au) :   0.2711 B(  5-Au,  8-Au) :   0.2529
B(  5-Au, 12-Au) :   0.1794 B(  5-Au, 15-Mn) :   0.4016 B(  6-Au,  8-Au) :   0.2586
B(  6-Au, 15-Mn) :   0.3017 B(  7-Au,  9-Au) :   0.3145 B(  7-Au, 15-Mn) :   0.1456
B(  8-Au, 12-Au) :   0.1900 B(  8-Au, 14-Au) :   0.2316 B(  8-Au, 15-Mn) :   0.3673
B(  9-Au, 11-Au) :   0.2330 B(  9-Au, 12-Au) :   0.1436 B(  9-Au, 13-Au) :   0.2064
B(  9-Au, 15-Mn) :   0.4381 B( 10-Au, 11-Au) :   0.2656 B( 10-Au, 13-Au) :   0.1682
B( 10-Au, 14-Au) :   0.2516 B( 10-Au, 15-Mn) :   0.4009 B( 11-Au, 13-Au) :   0.2645
B( 11-Au, 15-Mn) :   0.2440 B( 12-Au, 13-Au) :   0.2215 B( 12-Au, 14-Au) :   0.1155
B( 12-Au, 15-Mn) :   0.4773 B( 13-Au, 14-Au) :   0.2559 B( 13-Au, 15-Mn) :   0.3021
B( 14-Au, 15-Mn) :   0.3692

FINAL SINGLE POINT ENERGY     -3188.224925438949

DIPOLE MOMENT
-------------
                                X             Y             Z
Electronic contribution:      7.16653       3.66699      -4.65406
Nuclear contribution   :     -7.11677      -3.64312       4.61532
                        -----------------------------------------
Total Dipole Moment    :      0.04976       0.02387      -0.03874
                        -----------------------------------------
Magnitude (a.u.)       :      0.06742
Magnitude (Debye)      :      0.17138

Rotational constants in cm-1:     0.000993     0.000946     0.000896
Rotational constants in MHz :    29.755566    28.351638    26.855414

                             ****ORCA TERMINATED NORMALLY****
TOTAL RUN TIME: 0 days 1 hours 35 minutes 4 seconds 824 msec
