                         Program Version 5.0.3 -  RELEASE  -
|  1> !RI-B2PLYP def2-TZVP def2-TZVP/C
|  2> !RIJCOSX VERYSLOWCONV
|  3>
|  4> %scf
|  5>   AutoTRAHIter 200
|  6>   maxiter 400
|  7> end
|  8>
|  9>
| 10> %pal nprocs 6 end
| 11>
| 12> *xyzfile 0 6 pbe.xyz
| 13>
| 14> $new_job
| 15>
| 16> !RI-B2PLYP def2-TZVP def2-TZVP/C
| 17> !RIJCOSX VERYSLOWCONV
| 18>
| 19> %scf
| 20>   AutoTRAHIter 200
| 21>   maxiter 400
| 22> end
| 23>
| 24>
| 25> %pal nprocs 6 end
| 26>
| 27> *xyzfile 0 4 pbe.xyz
| 28>
| 29>
| 30>
| 31>
| 32>
| 33>                          ****END OF INPUT****
 Total Charge           Charge          ....    0
 Multiplicity           Mult            ....    6
 Number of Electrons    NEL             ....  215
MP2 TOTAL ENERGY:    -2506.684060715 Eh
FINAL SINGLE POINT ENERGY     -2506.684060714970

CARTESIAN COORDINATES (ANGSTROEM)
---------------------------------
  Au     8.516217    8.250930    6.251554
  Au     6.230262    7.080884    5.724317
  Au     6.055401    5.182979    8.090920
  Au     4.058692    5.491282    6.159023
  Au     4.124676    7.298985    8.183506
  Au    10.861908    9.225831    7.119786
  Au     9.268554    8.462853    9.058983
  Au     5.267881    8.643511   10.144403
  Au     7.724779    6.086430    9.907211
  Au     7.822547    8.534562   11.267427
  Mn     6.775272    7.821443    8.192493

 Multiplicity           Mult            ....    4
 Number of Electrons    NEL             ....  215
 Basis Dimension        Dim             ....  445

ORBITAL ENERGIES
----------------
                 SPIN UP ORBITALS
  NO   OCC          E(Eh)            E(eV)
   0   1.0000    -237.620411     -6465.9801
   1   1.0000     -28.125479      -765.3332
   2   1.0000     -24.043883      -654.2673
   3   1.0000     -24.042809      -654.2381
   4   1.0000     -24.042205      -654.2217
   5   1.0000      -4.406806      -119.9153
   6   1.0000      -4.402725      -119.8042
   7   1.0000      -4.400717      -119.7496
   8   1.0000      -4.398018      -119.6762
   9   1.0000      -4.395874      -119.6178
  10   1.0000      -4.395220      -119.6000
  11   1.0000      -4.393327      -119.5485
  12   1.0000      -4.393029      -119.5404
  13   1.0000      -4.389181      -119.4357
  14   1.0000      -4.374222      -119.0286
  15   1.0000      -3.603886       -98.0667
  16   1.0000      -2.530206       -68.8504
  17   1.0000      -2.526782       -68.7572
  18   1.0000      -2.523197       -68.6597
  19   1.0000      -2.522199       -68.6325
  20   1.0000      -2.522005       -68.6273
  21   1.0000      -2.521470       -68.6127
  22   1.0000      -2.519324       -68.5543
  23   1.0000      -2.518733       -68.5382
  24   1.0000      -2.517423       -68.5026
  25   1.0000      -2.516609       -68.4804
  26   1.0000      -2.515962       -68.4628
  27   1.0000      -2.514490       -68.4227
  28   1.0000      -2.514075       -68.4115
  29   1.0000      -2.513106       -68.3851
  30   1.0000      -2.513048       -68.3835
  31   1.0000      -2.512036       -68.3560
  32   1.0000      -2.511720       -68.3474
  33   1.0000      -2.511232       -68.3341
  34   1.0000      -2.510895       -68.3249
  35   1.0000      -2.509941       -68.2990
  36   1.0000      -2.509564       -68.2887
  37   1.0000      -2.509252       -68.2802
  38   1.0000      -2.508613       -68.2628
  39   1.0000      -2.505360       -68.1743
  40   1.0000      -2.504142       -68.1412
  41   1.0000      -2.503968       -68.1364
  42   1.0000      -2.500563       -68.0438
  43   1.0000      -2.494474       -67.8781
  44   1.0000      -2.490909       -67.7811
  45   1.0000      -2.486556       -67.6626
  46   1.0000      -2.406209       -65.4763
  47   1.0000      -2.404516       -65.4302
  48   1.0000      -2.404103       -65.4190
  49   1.0000      -0.512469       -13.9450
  50   1.0000      -0.511980       -13.9317
  51   1.0000      -0.509820       -13.8729
  52   1.0000      -0.503510       -13.7012
  53   1.0000      -0.501405       -13.6439
  54   1.0000      -0.477336       -12.9890
  55   1.0000      -0.473105       -12.8738
  56   1.0000      -0.465216       -12.6592
  57   1.0000      -0.463424       -12.6104
  58   1.0000      -0.455578       -12.3969
  59   1.0000      -0.447914       -12.1884
  60   1.0000      -0.443890       -12.0789
  61   1.0000      -0.440319       -11.9817
  62   1.0000      -0.434478       -11.8227
  63   1.0000      -0.432945       -11.7810
  64   1.0000      -0.430132       -11.7045
  65   1.0000      -0.428095       -11.6491
  66   1.0000      -0.425082       -11.5671
  67   1.0000      -0.413231       -11.2446
  68   1.0000      -0.412797       -11.2328
  69   1.0000      -0.411397       -11.1947
  70   1.0000      -0.408567       -11.1177
  71   1.0000      -0.405313       -11.0291
  72   1.0000      -0.402684       -10.9576
  73   1.0000      -0.398453       -10.8425
  74   1.0000      -0.395773       -10.7695
  75   1.0000      -0.393296       -10.7021
  76   1.0000      -0.391240       -10.6462
  77   1.0000      -0.387221       -10.5368
  78   1.0000      -0.386595       -10.5198
  79   1.0000      -0.382681       -10.4133
  80   1.0000      -0.379006       -10.3133
  81   1.0000      -0.377812       -10.2808
  82   1.0000      -0.375800       -10.2260
  83   1.0000      -0.373781       -10.1711
  84   1.0000      -0.373074       -10.1519
  85   1.0000      -0.370270       -10.0756
  86   1.0000      -0.369209       -10.0467
  87   1.0000      -0.368525       -10.0281
  88   1.0000      -0.368353       -10.0234
  89   1.0000      -0.365896        -9.9565
  90   1.0000      -0.365278        -9.9397
  91   1.0000      -0.364540        -9.9196
  92   1.0000      -0.360247        -9.8028
  93   1.0000      -0.359301        -9.7771
  94   1.0000      -0.355068        -9.6619
  95   1.0000      -0.353508        -9.6194
  96   1.0000      -0.350704        -9.5432
  97   1.0000      -0.348671        -9.4878
  98   1.0000      -0.344678        -9.3792
  99   1.0000      -0.341431        -9.2908
 100   1.0000      -0.339248        -9.2314
 101   1.0000      -0.335310        -9.1242
 102   1.0000      -0.328032        -8.9262
 103   1.0000      -0.324740        -8.8366
 104   1.0000      -0.318611        -8.6698
 105   1.0000      -0.316272        -8.6062
 106   1.0000      -0.301494        -8.2041
 107   1.0000      -0.245972        -6.6932
 108   1.0000      -0.236570        -6.4374
 109   0.0000      -0.143695        -3.9101
 110   0.0000      -0.085386        -2.3235
 111   0.0000      -0.072804        -1.9811
 112   0.0000      -0.063213        -1.7201
 113   0.0000      -0.048683        -1.3247

                 SPIN DOWN ORBITALS
  NO   OCC          E(Eh)            E(eV)
   0   1.0000    -237.618328     -6465.9234
   1   1.0000     -28.024293      -762.5798
   2   1.0000     -23.950610      -651.7292
   3   1.0000     -23.950160      -651.7170
   4   1.0000     -23.949350      -651.6949
   5   1.0000      -4.407149      -119.9246
   6   1.0000      -4.402536      -119.7991
   7   1.0000      -4.401121      -119.7606
   8   1.0000      -4.397934      -119.6739
   9   1.0000      -4.397532      -119.6629
  10   1.0000      -4.397229      -119.6547
  11   1.0000      -4.393606      -119.5561
  12   1.0000      -4.391873      -119.5089
  13   1.0000      -4.388262      -119.4107
  14   1.0000      -4.375249      -119.0566
  15   1.0000      -3.319166       -90.3191
  16   1.0000      -2.529868       -68.8412
  17   1.0000      -2.526736       -68.7560
  18   1.0000      -2.524093       -68.6841
  19   1.0000      -2.521587       -68.6159
  20   1.0000      -2.520460       -68.5852
  21   1.0000      -2.520151       -68.5768
  22   1.0000      -2.518860       -68.5417
  23   1.0000      -2.517787       -68.5125
  24   1.0000      -2.517604       -68.5075
  25   1.0000      -2.516140       -68.4676
  26   1.0000      -2.515779       -68.4578
  27   1.0000      -2.515182       -68.4416
  28   1.0000      -2.514290       -68.4173
  29   1.0000      -2.513872       -68.4059
  30   1.0000      -2.512955       -68.3810
  31   1.0000      -2.512700       -68.3740
  32   1.0000      -2.511957       -68.3538
  33   1.0000      -2.511768       -68.3487
  34   1.0000      -2.510128       -68.3041
  35   1.0000      -2.509961       -68.2995
  36   1.0000      -2.508855       -68.2694
  37   1.0000      -2.507863       -68.2424
  38   1.0000      -2.506801       -68.2135
  39   1.0000      -2.505578       -68.1802
  40   1.0000      -2.503609       -68.1267
  41   1.0000      -2.502634       -68.1001
  42   1.0000      -2.499277       -68.0088
  43   1.0000      -2.495730       -67.9123
  44   1.0000      -2.491942       -67.8092
  45   1.0000      -2.486939       -67.6730
  46   1.0000      -2.080678       -56.6181
  47   1.0000      -2.079075       -56.5745
  48   1.0000      -2.077313       -56.5266
  49   1.0000      -0.487460       -13.2645
  50   1.0000      -0.474835       -12.9209
  51   1.0000      -0.471560       -12.8318
  52   1.0000      -0.467587       -12.7237
  53   1.0000      -0.466439       -12.6924
  54   1.0000      -0.458810       -12.4848
  55   1.0000      -0.453922       -12.3518
  56   1.0000      -0.444735       -12.1019
  57   1.0000      -0.439459       -11.9583
  58   1.0000      -0.438339       -11.9278
  59   1.0000      -0.436253       -11.8711
  60   1.0000      -0.434480       -11.8228
  61   1.0000      -0.430475       -11.7138
  62   1.0000      -0.425183       -11.5698
  63   1.0000      -0.418648       -11.3920
  64   1.0000      -0.417198       -11.3525
  65   1.0000      -0.414393       -11.2762
  66   1.0000      -0.412498       -11.2246
  67   1.0000      -0.411530       -11.1983
  68   1.0000      -0.406808       -11.0698
  69   1.0000      -0.402702       -10.9581
  70   1.0000      -0.400277       -10.8921
  71   1.0000      -0.395460       -10.7610
  72   1.0000      -0.392824       -10.6893
  73   1.0000      -0.391508       -10.6535
  74   1.0000      -0.388583       -10.5739
  75   1.0000      -0.387638       -10.5482
  76   1.0000      -0.384451       -10.4614
  77   1.0000      -0.380443       -10.3524
  78   1.0000      -0.379520       -10.3273
  79   1.0000      -0.377255       -10.2656
  80   1.0000      -0.375031       -10.2051
  81   1.0000      -0.372022       -10.1232
  82   1.0000      -0.371447       -10.1076
  83   1.0000      -0.370321       -10.0769
  84   1.0000      -0.369820       -10.0633
  85   1.0000      -0.367769       -10.0075
  86   1.0000      -0.366516        -9.9734
  87   1.0000      -0.365012        -9.9325
  88   1.0000      -0.361479        -9.8363
  89   1.0000      -0.357962        -9.7407
  90   1.0000      -0.355226        -9.6662
  91   1.0000      -0.353620        -9.6225
  92   1.0000      -0.350167        -9.5285
  93   1.0000      -0.348856        -9.4928
  94   1.0000      -0.344174        -9.3655
  95   1.0000      -0.341191        -9.2843
  96   1.0000      -0.338587        -9.2134
  97   1.0000      -0.334811        -9.1107
  98   1.0000      -0.329558        -8.9677
  99   1.0000      -0.328881        -8.9493
 100   1.0000      -0.319779        -8.7016
 101   1.0000      -0.314122        -8.5477
 102   1.0000      -0.272848        -7.4246
 103   1.0000      -0.248242        -6.7550
 104   1.0000      -0.246853        -6.7172
 105   1.0000      -0.182350        -4.9620
 106   0.0000      -0.083951        -2.2844
 107   0.0000      -0.069104        -1.8804
 108   0.0000      -0.065415        -1.7800
 109   0.0000      -0.042171        -1.1475
 110   0.0000      -0.028202        -0.7674

MULLIKEN ATOMIC CHARGES AND SPIN POPULATIONS
--------------------------------------------
   0 Au:   -0.144647   -0.029654
   1 Au:    0.146947   -0.117107
   2 Au:    0.006469   -0.345865
   3 Au:    0.315367   -0.191695
   4 Au:   -0.013939   -0.124486
   5 Au:    0.321283   -0.150857
   6 Au:   -0.411416   -0.096304
   7 Au:    0.041676   -0.130848
   8 Au:    0.147245   -0.042474
   9 Au:    0.347321   -0.491449
  10 Mn:   -0.756307    4.720737
Sum of atomic charges         :   -0.0000000

LOEWDIN ATOMIC CHARGES AND SPIN POPULATIONS
-------------------------------------------
   0 Au:   -0.052364   -0.033426
   1 Au:   -0.010487   -0.087543
   2 Au:   -0.032861   -0.233804
   3 Au:    0.111536   -0.162471
   4 Au:   -0.055573   -0.100909
   5 Au:    0.075001   -0.105024
   6 Au:   -0.114157   -0.090048
   7 Au:   -0.001733   -0.176104
   8 Au:    0.073182   -0.190208
   9 Au:    0.047930   -0.404533
  10 Mn:   -0.040474    4.584069

  Mayer bond orders larger than 0.100000
B(  0-Au,  1-Au) :   0.5194 B(  0-Au,  5-Au) :   0.4242 B(  0-Au,  6-Au) :   0.2569
B(  0-Au, 10-Mn) :   0.5762 B(  1-Au,  2-Au) :   0.1159 B(  1-Au,  3-Au) :   0.2525
B(  1-Au, 10-Mn) :   0.5096 B(  2-Au,  3-Au) :   0.3776 B(  2-Au,  4-Au) :   0.1560
B(  2-Au,  8-Au) :   0.3868 B(  2-Au, 10-Mn) :   0.3071 B(  3-Au,  4-Au) :   0.3039
B(  4-Au,  7-Au) :   0.3738 B(  4-Au, 10-Mn) :   0.5418 B(  5-Au,  6-Au) :   0.5771
B(  6-Au,  8-Au) :   0.2669 B(  6-Au,  9-Au) :   0.2445 B(  6-Au, 10-Mn) :   0.4388
B(  7-Au,  9-Au) :   0.3214 B(  7-Au, 10-Mn) :   0.6066 B(  8-Au,  9-Au) :   0.1691
B(  8-Au, 10-Mn) :   0.4662 B(  9-Au, 10-Mn) :   0.1414

MP2 TOTAL ENERGY:    -2506.638381670 Eh
FINAL SINGLE POINT ENERGY     -2506.638381670364

DIPOLE MOMENT
-------------
                                X             Y             Z
Electronic contribution:      7.80789     -14.77075      -0.06332
Nuclear contribution   :     -7.88899      14.32848       0.06446
                        -----------------------------------------
Total Dipole Moment    :     -0.08110      -0.44226       0.00115
                        -----------------------------------------
Magnitude (a.u.)       :      0.44964
Magnitude (Debye)      :      1.14289

Rotational constants in cm-1:     0.002085     0.001335     0.000996
Rotational constants in MHz :    62.511506    40.013717    29.864702

                             ****ORCA TERMINATED NORMALLY****
TOTAL RUN TIME: 0 days 0 hours 19 minutes 47 seconds 811 msec
