                         Program Version 5.0.3 -  RELEASE  -
|  1> !PBE def2-TZVP VERYSLOWCONV
|  2> !KDIIS
|  3>
|  4> %scf
|  5>   AutoTRAHIter 200
|  6>   maxiter 400
|  7> end
|  8>
|  9>
| 10> %pal nprocs 6 end
| 11>
| 12> *xyzfile 0 6 pbe.xyz
| 13>
| 14> $new_job
| 15>
| 16> !PBE def2-TZVP VERYSLOWCONV
| 17> !KDIIS
| 18>
| 19> %scf
| 20>   AutoTRAHIter 200
| 21>   maxiter 400
| 22> end
| 23>
| 24>
| 25> %pal nprocs 6 end
| 26>
| 27> *xyzfile 0 4 pbe.xyz
| 28>
| 29>
| 30>
| 31>
| 32>
| 33>                          ****END OF INPUT****
 Total Charge           Charge          ....    0
 Multiplicity           Mult            ....    6
 Number of Electrons    NEL             ....  215
FINAL SINGLE POINT ENERGY     -2509.044442098567

CARTESIAN COORDINATES (ANGSTROEM)
---------------------------------
  Au     8.516217    8.250930    6.251554
  Au     6.230262    7.080884    5.724317
  Au     6.055401    5.182979    8.090920
  Au     4.058692    5.491282    6.159023
  Au     4.124676    7.298985    8.183506
  Au    10.861908    9.225831    7.119786
  Au     9.268554    8.462853    9.058983
  Au     5.267881    8.643511   10.144403
  Au     7.724779    6.086430    9.907211
  Au     7.822547    8.534562   11.267427
  Mn     6.775272    7.821443    8.192493

 Multiplicity           Mult            ....    4
 Number of Electrons    NEL             ....  215
 Basis Dimension        Dim             ....  445

ORBITAL ENERGIES
----------------
                 SPIN UP ORBITALS
  NO   OCC          E(Eh)            E(eV)
   0   1.0000    -234.200014     -6372.9064
   1   1.0000     -26.896839      -731.9002
   2   1.0000     -23.047258      -627.1478
   3   1.0000     -23.045408      -627.0974
   4   1.0000     -23.043302      -627.0401
   5   1.0000      -4.030788      -109.6833
   6   1.0000      -4.029317      -109.6433
   7   1.0000      -4.028075      -109.6095
   8   1.0000      -4.025999      -109.5530
   9   1.0000      -4.024615      -109.5153
  10   1.0000      -4.021946      -109.4427
  11   1.0000      -4.021105      -109.4198
  12   1.0000      -4.020313      -109.3983
  13   1.0000      -4.019274      -109.3700
  14   1.0000      -4.007212      -109.0418
  15   1.0000      -3.105393       -84.5021
  16   1.0000      -2.250848       -61.2487
  17   1.0000      -2.249185       -61.2034
  18   1.0000      -2.247692       -61.1628
  19   1.0000      -2.245202       -61.0950
  20   1.0000      -2.243625       -61.0521
  21   1.0000      -2.242788       -61.0294
  22   1.0000      -2.242456       -61.0203
  23   1.0000      -2.241520       -60.9949
  24   1.0000      -2.240706       -60.9727
  25   1.0000      -2.240252       -60.9604
  26   1.0000      -2.238308       -60.9074
  27   1.0000      -2.237163       -60.8763
  28   1.0000      -2.236842       -60.8676
  29   1.0000      -2.235887       -60.8416
  30   1.0000      -2.235662       -60.8355
  31   1.0000      -2.235246       -60.8241
  32   1.0000      -2.234764       -60.8110
  33   1.0000      -2.234325       -60.7991
  34   1.0000      -2.234075       -60.7923
  35   1.0000      -2.233239       -60.7695
  36   1.0000      -2.232811       -60.7579
  37   1.0000      -2.232593       -60.7519
  38   1.0000      -2.231348       -60.7181
  39   1.0000      -2.230599       -60.6977
  40   1.0000      -2.228716       -60.6464
  41   1.0000      -2.227225       -60.6059
  42   1.0000      -2.225838       -60.5681
  43   1.0000      -2.224926       -60.5433
  44   1.0000      -2.220967       -60.4356
  45   1.0000      -2.213098       -60.2215
  46   1.0000      -2.012319       -54.7580
  47   1.0000      -2.008067       -54.6423
  48   1.0000      -2.003387       -54.5149
  49   1.0000      -0.406399       -11.0587
  50   1.0000      -0.383230       -10.4282
  51   1.0000      -0.378012       -10.2862
  52   1.0000      -0.372345       -10.1320
  53   1.0000      -0.364004        -9.9051
  54   1.0000      -0.361619        -9.8402
  55   1.0000      -0.355347        -9.6695
  56   1.0000      -0.343843        -9.3565
  57   1.0000      -0.341659        -9.2970
  58   1.0000      -0.338286        -9.2052
  59   1.0000      -0.336338        -9.1522
  60   1.0000      -0.331588        -9.0230
  61   1.0000      -0.329615        -8.9693
  62   1.0000      -0.327076        -8.9002
  63   1.0000      -0.322917        -8.7870
  64   1.0000      -0.320348        -8.7171
  65   1.0000      -0.317774        -8.6471
  66   1.0000      -0.315805        -8.5935
  67   1.0000      -0.313668        -8.5353
  68   1.0000      -0.310678        -8.4540
  69   1.0000      -0.305307        -8.3078
  70   1.0000      -0.302941        -8.2434
  71   1.0000      -0.300287        -8.1712
  72   1.0000      -0.299630        -8.1534
  73   1.0000      -0.295779        -8.0485
  74   1.0000      -0.291239        -7.9250
  75   1.0000      -0.290403        -7.9023
  76   1.0000      -0.285813        -7.7774
  77   1.0000      -0.284096        -7.7307
  78   1.0000      -0.283777        -7.7220
  79   1.0000      -0.280078        -7.6213
  80   1.0000      -0.277813        -7.5597
  81   1.0000      -0.276815        -7.5325
  82   1.0000      -0.274271        -7.4633
  83   1.0000      -0.272396        -7.4123
  84   1.0000      -0.272060        -7.4031
  85   1.0000      -0.271226        -7.3804
  86   1.0000      -0.268496        -7.3061
  87   1.0000      -0.265761        -7.2317
  88   1.0000      -0.265214        -7.2168
  89   1.0000      -0.264286        -7.1916
  90   1.0000      -0.262507        -7.1432
  91   1.0000      -0.259701        -7.0668
  92   1.0000      -0.259282        -7.0554
  93   1.0000      -0.256512        -6.9800
  94   1.0000      -0.254334        -6.9208
  95   1.0000      -0.253483        -6.8976
  96   1.0000      -0.251599        -6.8464
  97   1.0000      -0.250255        -6.8098
  98   1.0000      -0.247192        -6.7264
  99   1.0000      -0.246850        -6.7171
 100   1.0000      -0.245297        -6.6749
 101   1.0000      -0.244459        -6.6521
 102   1.0000      -0.241853        -6.5812
 103   1.0000      -0.240385        -6.5412
 104   1.0000      -0.238072        -6.4783
 105   1.0000      -0.234015        -6.3679
 106   1.0000      -0.231566        -6.3012
 107   1.0000      -0.213263        -5.8032
 108   1.0000      -0.210058        -5.7160
 109   0.0000      -0.205095        -5.5809
 110   0.0000      -0.155149        -4.2218
 111   0.0000      -0.139431        -3.7941
 112   0.0000      -0.129116        -3.5134
 113   0.0000      -0.122790        -3.3413

                 SPIN DOWN ORBITALS
  NO   OCC          E(Eh)            E(eV)
   0   1.0000    -234.199278     -6372.8863
   1   1.0000     -26.831574      -730.1243
   2   1.0000     -22.996948      -625.7788
   3   1.0000     -22.996465      -625.7656
   4   1.0000     -22.993838      -625.6941
   5   1.0000      -4.030552      -109.6769
   6   1.0000      -4.029406      -109.6457
   7   1.0000      -4.027817      -109.6025
   8   1.0000      -4.025498      -109.5394
   9   1.0000      -4.023696      -109.4903
  10   1.0000      -4.023437      -109.4833
  11   1.0000      -4.021725      -109.4367
  12   1.0000      -4.020305      -109.3981
  13   1.0000      -4.018611      -109.3520
  14   1.0000      -4.007842      -109.0589
  15   1.0000      -2.945054       -80.1390
  16   1.0000      -2.250603       -61.2420
  17   1.0000      -2.249856       -61.2217
  18   1.0000      -2.247437       -61.1559
  19   1.0000      -2.244714       -61.0818
  20   1.0000      -2.242909       -61.0327
  21   1.0000      -2.242068       -61.0098
  22   1.0000      -2.241739       -61.0008
  23   1.0000      -2.241265       -60.9879
  24   1.0000      -2.240401       -60.9644
  25   1.0000      -2.239338       -60.9355
  26   1.0000      -2.239047       -60.9276
  27   1.0000      -2.237302       -60.8801
  28   1.0000      -2.237070       -60.8738
  29   1.0000      -2.236761       -60.8654
  30   1.0000      -2.235539       -60.8321
  31   1.0000      -2.235075       -60.8195
  32   1.0000      -2.234735       -60.8102
  33   1.0000      -2.234402       -60.8012
  34   1.0000      -2.233888       -60.7872
  35   1.0000      -2.233626       -60.7801
  36   1.0000      -2.233317       -60.7717
  37   1.0000      -2.232575       -60.7515
  38   1.0000      -2.231708       -60.7279
  39   1.0000      -2.231153       -60.7128
  40   1.0000      -2.227719       -60.6193
  41   1.0000      -2.227546       -60.6146
  42   1.0000      -2.226707       -60.5918
  43   1.0000      -2.224351       -60.5277
  44   1.0000      -2.221683       -60.4551
  45   1.0000      -2.213514       -60.2328
  46   1.0000      -1.853630       -50.4398
  47   1.0000      -1.851310       -50.3767
  48   1.0000      -1.846595       -50.2484
  49   1.0000      -0.403710       -10.9855
  50   1.0000      -0.384714       -10.4686
  51   1.0000      -0.377062       -10.2604
  52   1.0000      -0.367200        -9.9920
  53   1.0000      -0.363008        -9.8780
  54   1.0000      -0.358050        -9.7430
  55   1.0000      -0.351979        -9.5778
  56   1.0000      -0.338897        -9.2219
  57   1.0000      -0.337307        -9.1786
  58   1.0000      -0.336044        -9.1442
  59   1.0000      -0.332095        -9.0368
  60   1.0000      -0.330849        -9.0029
  61   1.0000      -0.326249        -8.8777
  62   1.0000      -0.323873        -8.8130
  63   1.0000      -0.318034        -8.6541
  64   1.0000      -0.316769        -8.6197
  65   1.0000      -0.315978        -8.5982
  66   1.0000      -0.312853        -8.5132
  67   1.0000      -0.309861        -8.4317
  68   1.0000      -0.306551        -8.3417
  69   1.0000      -0.303813        -8.2672
  70   1.0000      -0.301509        -8.2045
  71   1.0000      -0.298665        -8.1271
  72   1.0000      -0.295842        -8.0503
  73   1.0000      -0.294002        -8.0002
  74   1.0000      -0.291873        -7.9423
  75   1.0000      -0.289126        -7.8675
  76   1.0000      -0.284681        -7.7466
  77   1.0000      -0.284131        -7.7316
  78   1.0000      -0.280646        -7.6368
  79   1.0000      -0.279364        -7.6019
  80   1.0000      -0.278685        -7.5834
  81   1.0000      -0.276793        -7.5319
  82   1.0000      -0.274158        -7.4602
  83   1.0000      -0.272491        -7.4148
  84   1.0000      -0.271373        -7.3844
  85   1.0000      -0.271043        -7.3754
  86   1.0000      -0.268453        -7.3050
  87   1.0000      -0.266085        -7.2406
  88   1.0000      -0.265648        -7.2287
  89   1.0000      -0.263965        -7.1829
  90   1.0000      -0.261979        -7.1288
  91   1.0000      -0.260424        -7.0865
  92   1.0000      -0.259718        -7.0673
  93   1.0000      -0.255591        -6.9550
  94   1.0000      -0.253804        -6.9064
  95   1.0000      -0.251785        -6.8514
  96   1.0000      -0.249094        -6.7782
  97   1.0000      -0.247642        -6.7387
  98   1.0000      -0.246345        -6.7034
  99   1.0000      -0.245048        -6.6681
 100   1.0000      -0.241121        -6.5612
 101   1.0000      -0.238241        -6.4829
 102   1.0000      -0.224674        -6.1137
 103   1.0000      -0.223642        -6.0856
 104   1.0000      -0.218816        -5.9543
 105   1.0000      -0.170822        -4.6483
 106   0.0000      -0.150794        -4.1033
 107   0.0000      -0.140849        -3.8327
 108   0.0000      -0.134938        -3.6719
 109   0.0000      -0.130565        -3.5528
 110   0.0000      -0.124478        -3.3872

MULLIKEN ATOMIC CHARGES AND SPIN POPULATIONS
--------------------------------------------
   0 Au:   -0.104150    0.025279
   1 Au:    0.162900   -0.128012
   2 Au:    0.034341   -0.224147
   3 Au:    0.334101   -0.062959
   4 Au:    0.039759   -0.114042
   5 Au:    0.328007   -0.131661
   6 Au:   -0.265156   -0.089021
   7 Au:    0.086982   -0.063508
   8 Au:    0.151909   -0.041447
   9 Au:    0.323342   -0.371467
  10 Mn:   -1.092035    4.200984
Sum of atomic charges         :   -0.0000000

LOEWDIN ATOMIC CHARGES AND SPIN POPULATIONS
-------------------------------------------
   0 Au:    0.002842   -0.000627
   1 Au:    0.036910   -0.080948
   2 Au:   -0.004352   -0.141549
   3 Au:    0.074372   -0.093413
   4 Au:   -0.022596   -0.069023
   5 Au:    0.068104   -0.112718
   6 Au:   -0.074923   -0.057362
   7 Au:    0.054568   -0.102253
   8 Au:    0.080775   -0.105987
   9 Au:    0.051273   -0.317980
  10 Mn:   -0.266974    4.081859

  Mayer bond orders larger than 0.100000
B(  0-Au,  1-Au) :   0.5309 B(  0-Au,  5-Au) :   0.4414 B(  0-Au,  6-Au) :   0.2343
B(  0-Au, 10-Mn) :   0.6198 B(  1-Au,  2-Au) :   0.1548 B(  1-Au,  3-Au) :   0.3191
B(  1-Au, 10-Mn) :   0.5488 B(  2-Au,  3-Au) :   0.3707 B(  2-Au,  4-Au) :   0.1723
B(  2-Au,  8-Au) :   0.4311 B(  2-Au, 10-Mn) :   0.4725 B(  3-Au,  4-Au) :   0.3500
B(  4-Au,  7-Au) :   0.3976 B(  4-Au, 10-Mn) :   0.5953 B(  5-Au,  6-Au) :   0.5664
B(  6-Au,  8-Au) :   0.2128 B(  6-Au,  9-Au) :   0.3763 B(  6-Au, 10-Mn) :   0.4918
B(  7-Au,  9-Au) :   0.3172 B(  7-Au, 10-Mn) :   0.6981 B(  8-Au,  9-Au) :   0.2277
B(  8-Au, 10-Mn) :   0.5666 B(  9-Au, 10-Mn) :   0.1960

FINAL SINGLE POINT ENERGY     -2509.008878310349

DIPOLE MOMENT
-------------
                                X             Y             Z
Electronic contribution:      7.89419     -14.55413      -0.05351
Nuclear contribution   :     -7.88899      14.32848       0.06446
                        -----------------------------------------
Total Dipole Moment    :      0.00519      -0.22565       0.01095
                        -----------------------------------------
Magnitude (a.u.)       :      0.22597
Magnitude (Debye)      :      0.57437

Rotational constants in cm-1:     0.002085     0.001335     0.000996
Rotational constants in MHz :    62.511506    40.013717    29.864702

                             ****ORCA TERMINATED NORMALLY****
TOTAL RUN TIME: 0 days 0 hours 2 minutes 41 seconds 372 msec
