                         Program Version 5.0.3 -  RELEASE  -
|  1> !R2SCAN def2-TZVP VERYSLOWCONV
|  2> !KDIIS
|  3> %scf
|  4>   AutoTRAHIter 200
|  5>   maxiter 400
|  6> end
|  7>
|  8> %pal nprocs 6 end
|  9>
| 10> *xyzfile 0 6 pbe.xyz
| 11>
| 12> $new_job
| 13>
| 14> !R2SCAN def2-TZVP VERYSLOWCONV
| 15> !KDIIS
| 16> %scf
| 17>   AutoTRAHIter 200
| 18>   maxiter 400
| 19> end
| 20>
| 21>
| 22> %pal nprocs 6 end
| 23>
| 24> *xyzfile 0 4 pbe.xyz
| 25>
| 26>
| 27>
| 28>
| 29>
| 30>                          ****END OF INPUT****
 Total Charge           Charge          ....    0
 Multiplicity           Mult            ....    6
 Number of Electrons    NEL             ....  215
FINAL SINGLE POINT ENERGY     -2509.452225205060

CARTESIAN COORDINATES (ANGSTROEM)
---------------------------------
  Au     8.516217    8.250930    6.251554
  Au     6.230262    7.080884    5.724317
  Au     6.055401    5.182979    8.090920
  Au     4.058692    5.491282    6.159023
  Au     4.124676    7.298985    8.183506
  Au    10.861908    9.225831    7.119786
  Au     9.268554    8.462853    9.058983
  Au     5.267881    8.643511   10.144403
  Au     7.724779    6.086430    9.907211
  Au     7.822547    8.534562   11.267427
  Mn     6.775272    7.821443    8.192493

 Multiplicity           Mult            ....    4
 Number of Electrons    NEL             ....  215
 Basis Dimension        Dim             ....  445

ORBITAL ENERGIES
----------------
                 SPIN UP ORBITALS
  NO   OCC          E(Eh)            E(eV)
   0   1.0000    -235.041017     -6395.7912
   1   1.0000     -27.222136      -740.7520
   2   1.0000     -23.270490      -633.2222
   3   1.0000     -23.268386      -633.1650
   4   1.0000     -23.267531      -633.1417
   5   1.0000      -4.121237      -112.1446
   6   1.0000      -4.120622      -112.1278
   7   1.0000      -4.120428      -112.1225
   8   1.0000      -4.117477      -112.0422
   9   1.0000      -4.114811      -111.9697
  10   1.0000      -4.113371      -111.9305
  11   1.0000      -4.113007      -111.9206
  12   1.0000      -4.111750      -111.8864
  13   1.0000      -4.110625      -111.8558
  14   1.0000      -4.097261      -111.4921
  15   1.0000      -3.244050       -88.2751
  16   1.0000      -2.313381       -62.9503
  17   1.0000      -2.313351       -62.9495
  18   1.0000      -2.312724       -62.9324
  19   1.0000      -2.309466       -62.8438
  20   1.0000      -2.307521       -62.7908
  21   1.0000      -2.306615       -62.7662
  22   1.0000      -2.306347       -62.7589
  23   1.0000      -2.305398       -62.7331
  24   1.0000      -2.304782       -62.7163
  25   1.0000      -2.304502       -62.7087
  26   1.0000      -2.301553       -62.6284
  27   1.0000      -2.301333       -62.6225
  28   1.0000      -2.300878       -62.6101
  29   1.0000      -2.300325       -62.5950
  30   1.0000      -2.299880       -62.5829
  31   1.0000      -2.299400       -62.5699
  32   1.0000      -2.298932       -62.5571
  33   1.0000      -2.298799       -62.5535
  34   1.0000      -2.298355       -62.5414
  35   1.0000      -2.297684       -62.5232
  36   1.0000      -2.297369       -62.5146
  37   1.0000      -2.296973       -62.5038
  38   1.0000      -2.295676       -62.4685
  39   1.0000      -2.294961       -62.4491
  40   1.0000      -2.292043       -62.3697
  41   1.0000      -2.291492       -62.3547
  42   1.0000      -2.289121       -62.2901
  43   1.0000      -2.288272       -62.2671
  44   1.0000      -2.283493       -62.1370
  45   1.0000      -2.276236       -61.9395
  46   1.0000      -2.104148       -57.2568
  47   1.0000      -2.099896       -57.1411
  48   1.0000      -2.097478       -57.0753
  49   1.0000      -0.412535       -11.2257
  50   1.0000      -0.390202       -10.6179
  51   1.0000      -0.386370       -10.5137
  52   1.0000      -0.382088       -10.3971
  53   1.0000      -0.375492       -10.2177
  54   1.0000      -0.372533       -10.1371
  55   1.0000      -0.365717        -9.9517
  56   1.0000      -0.356686        -9.7059
  57   1.0000      -0.353580        -9.6214
  58   1.0000      -0.350586        -9.5399
  59   1.0000      -0.346377        -9.4254
  60   1.0000      -0.341558        -9.2943
  61   1.0000      -0.339904        -9.2493
  62   1.0000      -0.337526        -9.1845
  63   1.0000      -0.333345        -9.0708
  64   1.0000      -0.331651        -9.0247
  65   1.0000      -0.328108        -8.9283
  66   1.0000      -0.326783        -8.8922
  67   1.0000      -0.322768        -8.7830
  68   1.0000      -0.320004        -8.7078
  69   1.0000      -0.315411        -8.5828
  70   1.0000      -0.311927        -8.4880
  71   1.0000      -0.309788        -8.4298
  72   1.0000      -0.308823        -8.4035
  73   1.0000      -0.304989        -8.2992
  74   1.0000      -0.301347        -8.2001
  75   1.0000      -0.299334        -8.1453
  76   1.0000      -0.295779        -8.0486
  77   1.0000      -0.294155        -8.0044
  78   1.0000      -0.292344        -7.9551
  79   1.0000      -0.289628        -7.8812
  80   1.0000      -0.286798        -7.8042
  81   1.0000      -0.285527        -7.7696
  82   1.0000      -0.283616        -7.7176
  83   1.0000      -0.282038        -7.6746
  84   1.0000      -0.281213        -7.6522
  85   1.0000      -0.280051        -7.6206
  86   1.0000      -0.277638        -7.5549
  87   1.0000      -0.275079        -7.4853
  88   1.0000      -0.274713        -7.4753
  89   1.0000      -0.272505        -7.4152
  90   1.0000      -0.271639        -7.3917
  91   1.0000      -0.268559        -7.3079
  92   1.0000      -0.268208        -7.2983
  93   1.0000      -0.267605        -7.2819
  94   1.0000      -0.265789        -7.2325
  95   1.0000      -0.263714        -7.1760
  96   1.0000      -0.262969        -7.1558
  97   1.0000      -0.260655        -7.0928
  98   1.0000      -0.257256        -7.0003
  99   1.0000      -0.255275        -6.9464
 100   1.0000      -0.254550        -6.9267
 101   1.0000      -0.253642        -6.9020
 102   1.0000      -0.249801        -6.7974
 103   1.0000      -0.249403        -6.7866
 104   1.0000      -0.245825        -6.6892
 105   1.0000      -0.242725        -6.6049
 106   1.0000      -0.240136        -6.5344
 107   1.0000      -0.217685        -5.9235
 108   1.0000      -0.214388        -5.8338
 109   0.0000      -0.204536        -5.5657
 110   0.0000      -0.150042        -4.0828
 111   0.0000      -0.135074        -3.6755
 112   0.0000      -0.123719        -3.3666
 113   0.0000      -0.116444        -3.1686

                 SPIN DOWN ORBITALS
  NO   OCC          E(Eh)            E(eV)
   0   1.0000    -235.039981     -6395.7630
   1   1.0000     -27.134208      -738.3593
   2   1.0000     -23.202051      -631.3599
   3   1.0000     -23.201894      -631.3556
   4   1.0000     -23.200110      -631.3071
   5   1.0000      -4.121277      -112.1457
   6   1.0000      -4.120997      -112.1380
   7   1.0000      -4.120168      -112.1155
   8   1.0000      -4.117151      -112.0334
   9   1.0000      -4.115789      -111.9963
  10   1.0000      -4.113895      -111.9448
  11   1.0000      -4.113506      -111.9342
  12   1.0000      -4.112036      -111.8942
  13   1.0000      -4.110076      -111.8408
  14   1.0000      -4.098171      -111.5169
  15   1.0000      -3.033856       -82.5554
  16   1.0000      -2.314167       -62.9717
  17   1.0000      -2.312943       -62.9384
  18   1.0000      -2.312538       -62.9274
  19   1.0000      -2.309124       -62.8345
  20   1.0000      -2.307130       -62.7802
  21   1.0000      -2.306161       -62.7538
  22   1.0000      -2.305895       -62.7466
  23   1.0000      -2.304926       -62.7202
  24   1.0000      -2.303855       -62.6911
  25   1.0000      -2.303753       -62.6883
  26   1.0000      -2.303506       -62.6816
  27   1.0000      -2.301909       -62.6381
  28   1.0000      -2.301514       -62.6274
  29   1.0000      -2.300447       -62.5984
  30   1.0000      -2.299557       -62.5741
  31   1.0000      -2.299498       -62.5725
  32   1.0000      -2.298974       -62.5583
  33   1.0000      -2.298445       -62.5439
  34   1.0000      -2.298410       -62.5429
  35   1.0000      -2.298046       -62.5330
  36   1.0000      -2.297876       -62.5284
  37   1.0000      -2.297046       -62.5058
  38   1.0000      -2.296323       -62.4861
  39   1.0000      -2.295343       -62.4595
  40   1.0000      -2.291862       -62.3647
  41   1.0000      -2.290888       -62.3382
  42   1.0000      -2.289465       -62.2995
  43   1.0000      -2.288491       -62.2730
  44   1.0000      -2.284439       -62.1627
  45   1.0000      -2.276759       -61.9538
  46   1.0000      -1.893520       -51.5253
  47   1.0000      -1.892270       -51.4913
  48   1.0000      -1.888857       -51.3984
  49   1.0000      -0.411305       -11.1922
  50   1.0000      -0.392512       -10.6808
  51   1.0000      -0.384945       -10.4749
  52   1.0000      -0.377215       -10.2645
  53   1.0000      -0.373045       -10.1511
  54   1.0000      -0.367976       -10.0131
  55   1.0000      -0.361534        -9.8378
  56   1.0000      -0.348845        -9.4925
  57   1.0000      -0.346869        -9.4388
  58   1.0000      -0.346152        -9.4193
  59   1.0000      -0.342195        -9.3116
  60   1.0000      -0.340844        -9.2748
  61   1.0000      -0.335698        -9.1348
  62   1.0000      -0.334096        -9.0912
  63   1.0000      -0.327613        -8.9148
  64   1.0000      -0.325965        -8.8700
  65   1.0000      -0.324618        -8.8333
  66   1.0000      -0.322598        -8.7783
  67   1.0000      -0.319088        -8.6828
  68   1.0000      -0.316067        -8.6006
  69   1.0000      -0.313473        -8.5300
  70   1.0000      -0.311001        -8.4628
  71   1.0000      -0.307631        -8.3711
  72   1.0000      -0.304762        -8.2930
  73   1.0000      -0.302302        -8.2261
  74   1.0000      -0.301244        -8.1973
  75   1.0000      -0.298394        -8.1197
  76   1.0000      -0.294487        -8.0134
  77   1.0000      -0.293140        -7.9768
  78   1.0000      -0.289835        -7.8868
  79   1.0000      -0.288928        -7.8621
  80   1.0000      -0.288198        -7.8423
  81   1.0000      -0.285436        -7.7671
  82   1.0000      -0.282843        -7.6966
  83   1.0000      -0.281391        -7.6570
  84   1.0000      -0.280714        -7.6386
  85   1.0000      -0.279981        -7.6187
  86   1.0000      -0.277687        -7.5562
  87   1.0000      -0.274833        -7.4786
  88   1.0000      -0.274342        -7.4652
  89   1.0000      -0.271778        -7.3954
  90   1.0000      -0.270460        -7.3596
  91   1.0000      -0.268673        -7.3110
  92   1.0000      -0.268229        -7.2989
  93   1.0000      -0.263070        -7.1585
  94   1.0000      -0.262210        -7.1351
  95   1.0000      -0.259848        -7.0708
  96   1.0000      -0.256655        -6.9839
  97   1.0000      -0.255633        -6.9561
  98   1.0000      -0.253254        -6.8914
  99   1.0000      -0.253056        -6.8860
 100   1.0000      -0.249071        -6.7776
 101   1.0000      -0.244354        -6.6492
 102   1.0000      -0.230788        -6.2801
 103   1.0000      -0.226163        -6.1542
 104   1.0000      -0.222932        -6.0663
 105   1.0000      -0.170778        -4.6471
 106   0.0000      -0.145573        -3.9612
 107   0.0000      -0.131877        -3.5885
 108   0.0000      -0.128363        -3.4929
 109   0.0000      -0.112121        -3.0510
 110   0.0000      -0.109482        -2.9792

MULLIKEN ATOMIC CHARGES AND SPIN POPULATIONS
--------------------------------------------
   0 Au:   -0.105080    0.023985
   1 Au:    0.154574   -0.121161
   2 Au:    0.029698   -0.264195
   3 Au:    0.301673   -0.102372
   4 Au:    0.017873   -0.125973
   5 Au:    0.304101   -0.158048
   6 Au:   -0.276486   -0.074674
   7 Au:    0.073012   -0.078173
   8 Au:    0.146328   -0.048792
   9 Au:    0.307681   -0.445135
  10 Mn:   -0.953373    4.394540
Sum of atomic charges         :   -0.0000000

LOEWDIN ATOMIC CHARGES AND SPIN POPULATIONS
-------------------------------------------
   0 Au:   -0.008887   -0.005268
   1 Au:    0.025994   -0.080332
   2 Au:   -0.009905   -0.170973
   3 Au:    0.075168   -0.117532
   4 Au:   -0.030112   -0.084932
   5 Au:    0.062180   -0.122390
   6 Au:   -0.080938   -0.068787
   7 Au:    0.041462   -0.125901
   8 Au:    0.079891   -0.134086
   9 Au:    0.048010   -0.363350
  10 Mn:   -0.202862    4.273551

  Mayer bond orders larger than 0.100000
B(  0-Au,  1-Au) :   0.5468 B(  0-Au,  5-Au) :   0.4319 B(  0-Au,  6-Au) :   0.2096
B(  0-Au, 10-Mn) :   0.6071 B(  1-Au,  2-Au) :   0.1265 B(  1-Au,  3-Au) :   0.2951
B(  1-Au, 10-Mn) :   0.5362 B(  2-Au,  3-Au) :   0.3766 B(  2-Au,  4-Au) :   0.1329
B(  2-Au,  8-Au) :   0.4222 B(  2-Au, 10-Mn) :   0.4125 B(  3-Au,  4-Au) :   0.3372
B(  4-Au,  7-Au) :   0.3922 B(  4-Au, 10-Mn) :   0.5792 B(  5-Au,  6-Au) :   0.5593
B(  6-Au,  8-Au) :   0.2064 B(  6-Au,  9-Au) :   0.3352 B(  6-Au, 10-Mn) :   0.4729
B(  7-Au,  9-Au) :   0.3106 B(  7-Au, 10-Mn) :   0.6633 B(  8-Au,  9-Au) :   0.2104
B(  8-Au, 10-Mn) :   0.5372 B(  9-Au, 10-Mn) :   0.1666

FINAL SINGLE POINT ENERGY     -2509.413008699866

DIPOLE MOMENT
-------------
                                X             Y             Z
Electronic contribution:      7.88438     -14.60806      -0.02294
Nuclear contribution   :     -7.88899      14.32848       0.06446
                        -----------------------------------------
Total Dipole Moment    :     -0.00461      -0.27958       0.04152
                        -----------------------------------------
Magnitude (a.u.)       :      0.28268
Magnitude (Debye)      :      0.71853

Rotational constants in cm-1:     0.002085     0.001335     0.000996
Rotational constants in MHz :    62.511506    40.013717    29.864702

                             ****ORCA TERMINATED NORMALLY****
TOTAL RUN TIME: 0 days 0 hours 4 minutes 8 seconds 679 msec
