                         Program Version 5.0.3 -  RELEASE  -
|  1> !SC-NEVPT2 def2-TZVP def2-TZVP/C
|  2> !MOREAD RIJCOSX def2/J
|  3> %maxcore 4000
|  4> %moinp "casscf.gbw"
|  5> %pal nprocs 8 end
|  6>
|  7> %casscf
|  8>  mult 5,3
|  9>  bweight 1,1
| 10>  nroots 5,45
| 11>  nel 6
| 12>  norb 5
| 13>  ptsettings
| 14>   d4tpre 1e-14 # default = 1e-10
| 15>   d3tpre 1e-14
| 16>  end
| 17>  rel
| 18>    dosoc true
| 19>    gtensor true
| 20>  end
| 21> end
| 22>
| 23>
| 24> *xyzfile 0 5 pbe.xyz
| 25>
| 26>
| 27>                          ****END OF INPUT****

CARTESIAN COORDINATES (ANGSTROEM)
---------------------------------
  Au     5.723739    9.711842    5.624374
  Au     6.877820   11.069235    7.734958
  Au     6.592071    7.929789    7.660662
  Au     7.301171    9.466338    9.945309
  Au     8.689548    7.173842    9.341445
  Au     9.460643   10.176891    8.329743
  Au     8.437302   10.341853    5.532006
  Au    11.099851    9.767958    6.112818
  Au    11.257956    8.052449    8.461215
  Au     9.162686    5.668897    5.114955
  Au    11.587964    7.039506    5.780494
  Au     9.643062    8.308694    4.057440
  Au     7.084830    7.417730    4.960884
  Au    10.093365    5.520294    7.700469
  Cr     9.112415    7.923639    6.735275

 Total Charge           Charge          ....    0
 Multiplicity           Mult            ....    5
 Number of Electrons    NEL             ....  290
 Basis Dimension        Dim             ....  605

ORBITAL ENERGIES
----------------

  NO   OCC          E(Eh)            E(eV)
   0   2.0000    -220.607689     -6003.0404
   1   2.0000     -26.461730      -720.0603
   2   2.0000     -22.393053      -609.3459
   3   2.0000     -22.392143      -609.3212
   4   2.0000     -22.384636      -609.1169
   5   2.0000      -4.720258      -128.4447
   6   2.0000      -4.719340      -128.4198
   7   2.0000      -4.718477      -128.3963
   8   2.0000      -4.718436      -128.3952
   9   2.0000      -4.717595      -128.3723
  10   2.0000      -4.717117      -128.3593
  11   2.0000      -4.714009      -128.2747
  12   2.0000      -4.713666      -128.2654
  13   2.0000      -4.710317      -128.1742
  14   2.0000      -4.709454      -128.1508
  15   2.0000      -4.704684      -128.0210
  16   2.0000      -4.703584      -127.9910
  17   2.0000      -4.702867      -127.9715
  18   2.0000      -4.700363      -127.9034
  19   2.0000      -3.502200       -95.2997
  20   2.0000      -2.760702       -75.1225
  21   2.0000      -2.759222       -75.0823
  22   2.0000      -2.758073       -75.0510
  23   2.0000      -2.757531       -75.0362
  24   2.0000      -2.756932       -75.0199
  25   2.0000      -2.756755       -75.0151
  26   2.0000      -2.756632       -75.0118
  27   2.0000      -2.756517       -75.0086
  28   2.0000      -2.755840       -74.9902
  29   2.0000      -2.755109       -74.9703
  30   2.0000      -2.754211       -74.9459
  31   2.0000      -2.753671       -74.9312
  32   2.0000      -2.753286       -74.9207
  33   2.0000      -2.752689       -74.9045
  34   2.0000      -2.752291       -74.8937
  35   2.0000      -2.752010       -74.8860
  36   2.0000      -2.751558       -74.8737
  37   2.0000      -2.751097       -74.8612
  38   2.0000      -2.750265       -74.8385
  39   2.0000      -2.750005       -74.8314
  40   2.0000      -2.749561       -74.8193
  41   2.0000      -2.749143       -74.8080
  42   2.0000      -2.748750       -74.7973
  43   2.0000      -2.747631       -74.7668
  44   2.0000      -2.747520       -74.7638
  45   2.0000      -2.746280       -74.7301
  46   2.0000      -2.745684       -74.7139
  47   2.0000      -2.743958       -74.6669
  48   2.0000      -2.743424       -74.6524
  49   2.0000      -2.741955       -74.6124
  50   2.0000      -2.741463       -74.5990
  51   2.0000      -2.741160       -74.5908
  52   2.0000      -2.740078       -74.5613
  53   2.0000      -2.739261       -74.5391
  54   2.0000      -2.738707       -74.5240
  55   2.0000      -2.738098       -74.5074
  56   2.0000      -2.737988       -74.5045
  57   2.0000      -2.737892       -74.5018
  58   2.0000      -2.737152       -74.4817
  59   2.0000      -2.736208       -74.4560
  60   2.0000      -2.734918       -74.4209
  61   2.0000      -2.733897       -74.3931
  62   2.0000      -2.259673       -61.4888
  63   2.0000      -2.257537       -61.4307
  64   2.0000      -2.252431       -61.2918
  65   2.0000      -0.574199       -15.6247
  66   2.0000      -0.556202       -15.1350
  67   2.0000      -0.554019       -15.0756
  68   2.0000      -0.550486       -14.9795
  69   2.0000      -0.550073       -14.9683
  70   2.0000      -0.549228       -14.9453
  71   2.0000      -0.547538       -14.8993
  72   2.0000      -0.542895       -14.7729
  73   2.0000      -0.542686       -14.7672
  74   2.0000      -0.540044       -14.6954
  75   2.0000      -0.537724       -14.6322
  76   2.0000      -0.537567       -14.6279
  77   2.0000      -0.536974       -14.6118
  78   2.0000      -0.534934       -14.5563
  79   2.0000      -0.533815       -14.5258
  80   2.0000      -0.532792       -14.4980
  81   2.0000      -0.529045       -14.3961
  82   2.0000      -0.527171       -14.3451
  83   2.0000      -0.526954       -14.3391
  84   2.0000      -0.522586       -14.2203
  85   2.0000      -0.521049       -14.1785
  86   2.0000      -0.520349       -14.1594
  87   2.0000      -0.516405       -14.0521
  88   2.0000      -0.514014       -13.9870
  89   2.0000      -0.513156       -13.9637
  90   2.0000      -0.508882       -13.8474
  91   2.0000      -0.503556       -13.7025
  92   2.0000      -0.501663       -13.6509
  93   2.0000      -0.501457       -13.6453
  94   2.0000      -0.494769       -13.4634
  95   2.0000      -0.488361       -13.2890
  96   2.0000      -0.485462       -13.2101
  97   2.0000      -0.483750       -13.1635
  98   2.0000      -0.480786       -13.0829
  99   2.0000      -0.478236       -13.0135
 100   2.0000      -0.477245       -12.9865
 101   2.0000      -0.469164       -12.7666
 102   2.0000      -0.465972       -12.6797
 103   2.0000      -0.463061       -12.6005
 104   2.0000      -0.462613       -12.5883
 105   2.0000      -0.459218       -12.4960
 106   2.0000      -0.458627       -12.4799
 107   2.0000      -0.456818       -12.4306
 108   2.0000      -0.456519       -12.4225
 109   2.0000      -0.452544       -12.3144
 110   2.0000      -0.451697       -12.2913
 111   2.0000      -0.451604       -12.2888
 112   2.0000      -0.448906       -12.2154
 113   2.0000      -0.448819       -12.2130
 114   2.0000      -0.444456       -12.0943
 115   2.0000      -0.443853       -12.0778
 116   2.0000      -0.442517       -12.0415
 117   2.0000      -0.440870       -11.9967
 118   2.0000      -0.440145       -11.9769
 119   2.0000      -0.439084       -11.9481
 120   2.0000      -0.438846       -11.9416
 121   2.0000      -0.437122       -11.8947
 122   2.0000      -0.434132       -11.8133
 123   2.0000      -0.432498       -11.7689
 124   2.0000      -0.430854       -11.7241
 125   2.0000      -0.429557       -11.6889
 126   2.0000      -0.425446       -11.5770
 127   2.0000      -0.425194       -11.5701
 128   2.0000      -0.421525       -11.4703
 129   2.0000      -0.420395       -11.4395
 130   2.0000      -0.413205       -11.2439
 131   2.0000      -0.412536       -11.2257
 132   2.0000      -0.410493       -11.1701
 133   2.0000      -0.405419       -11.0320
 134   2.0000      -0.399306       -10.8657
 135   2.0000      -0.385600       -10.4927
 136   2.0000      -0.380353       -10.3499
 137   2.0000      -0.353090        -9.6081
 138   2.0000      -0.328935        -8.9508
 139   2.0000      -0.259557        -7.0629
 140   2.0000      -0.244190        -6.6448
 141   2.0000      -0.221235        -6.0201
 142   1.2000      -0.176631        -4.8064
 143   1.2000      -0.162705        -4.4274
 144   1.2000      -0.175797        -4.7837
 145   1.2000      -0.155306        -4.2261
 146   1.2000      -0.163697        -4.4544
 147   0.0000      -0.013121        -0.3570
 148   0.0000      -0.008956        -0.2437
 149   0.0000      -0.003967        -0.1080
 150   0.0000       0.010326         0.2810
 151   0.0000       0.014328         0.3899

MULLIKEN ATOMIC CHARGES AND SPIN DENSITIES
------------------------------------------
   0 Au:    0.279600    0.027366
   1 Au:    0.146490    0.014472
   2 Au:    0.137914    0.056983
   3 Au:    0.281680    0.027993
   4 Au:    0.385014    0.044011
   5 Au:    0.185642    0.047205
   6 Au:    0.195686    0.046852
   7 Au:    0.565546    0.025844
   8 Au:    0.692254    0.042338
   9 Au:    0.525025    0.017787
  10 Au:    0.626703    0.006105
  11 Au:    0.695927    0.039293
  12 Au:    0.379962    0.043029
  13 Au:    0.522986    0.017486
  14 Cr:   -5.620428    2.543235
Sum of atomic charges       :    0.0000000

LOEWDIN ATOMIC CHARGES AND SPIN DENSITIES
-----------------------------------------
   0 Au:    0.116539    0.040269
   1 Au:    0.029044    0.020956
   2 Au:    0.036764    0.079492
   3 Au:    0.113732    0.041448
   4 Au:    0.076511    0.093680
   5 Au:    0.022530    0.063968
   6 Au:    0.027276    0.062601
   7 Au:    0.123380    0.059151
   8 Au:    0.114297    0.081563
   9 Au:    0.125004    0.045443
  10 Au:    0.058818    0.018257
  11 Au:    0.115140    0.078606
  12 Au:    0.073909    0.092613
  13 Au:    0.130297    0.047147
  14 Cr:   -1.163240    2.174807

  Mayer bond orders larger than 0.100000
B(  0-Au,  1-Au) :   0.1863 B(  0-Au,  2-Au) :   0.1864 B(  0-Au,  6-Au) :   0.1688
B(  0-Au, 12-Au) :   0.1631 B(  0-Au, 14-Cr) :   0.4493 B(  1-Au,  3-Au) :   0.1852
B(  1-Au,  5-Au) :   0.2100 B(  1-Au,  6-Au) :   0.2105 B(  1-Au, 14-Cr) :   0.4999
B(  2-Au,  3-Au) :   0.1884 B(  2-Au,  4-Au) :   0.1926 B(  2-Au, 10-Au) :   0.1235
B(  2-Au, 12-Au) :   0.1877 B(  2-Au, 14-Cr) :   0.4138 B(  3-Au,  4-Au) :   0.1654
B(  3-Au,  5-Au) :   0.1659 B(  3-Au, 14-Cr) :   0.4479 B(  4-Au,  8-Au) :   0.1130
B(  4-Au, 11-Au) :   0.1341 B(  4-Au, 13-Au) :   0.2193 B(  4-Au, 14-Cr) :   0.4570
B(  5-Au,  6-Au) :   0.1819 B(  5-Au,  7-Au) :   0.1690 B(  5-Au,  8-Au) :   0.1133
B(  5-Au, 14-Cr) :   0.5276 B(  6-Au,  7-Au) :   0.1715 B(  6-Au, 11-Au) :   0.1085
B(  6-Au, 14-Cr) :   0.5124 B(  7-Au, 10-Au) :   0.1164 B(  7-Au, 14-Cr) :   0.4221
B(  8-Au, 10-Au) :   0.1022 B(  8-Au, 12-Au) :   0.1346 B(  8-Au, 14-Cr) :   0.3127
B(  9-Au, 10-Au) :   0.1147 B(  9-Au, 12-Au) :   0.2245 B(  9-Au, 13-Au) :   0.1865
B(  9-Au, 14-Cr) :   0.3493 B( 10-Au, 11-Au) :   0.1012 B( 10-Au, 13-Au) :   0.1139
B( 10-Au, 14-Cr) :   0.3679 B( 11-Au, 12-Au) :   0.1134 B( 11-Au, 14-Cr) :   0.3073
B( 12-Au, 14-Cr) :   0.4663 B( 13-Au, 14-Cr) :   0.3447

FINAL SINGLE POINT ENERGY     -2937.595855393366

DIPOLE MOMENT
-------------
                                X             Y             Z
Electronic contribution:    -11.47761      16.79903       5.18715
Nuclear contribution   :     11.47306     -16.88686      -5.18832
                        -----------------------------------------
Total Dipole Moment    :     -0.00454      -0.08783      -0.00118
                        -----------------------------------------
Magnitude (a.u.)       :      0.08795
Magnitude (Debye)      :      0.22356

Rotational constants in cm-1:     0.001247     0.000996     0.000865
Rotational constants in MHz :    37.384559    29.852951    25.943672

                             ****ORCA TERMINATED NORMALLY****
TOTAL RUN TIME: 0 days 1 hours 19 minutes 2 seconds 15 msec
