                         Program Version 5.0.3 -  RELEASE  -
|  1> !RI-B2PLYP def2-TZVP def2-TZVP/C
|  2> !RIJCOSX VERYSLOWCONV
|  3>
|  4> %scf
|  5>   AutoTRAHIter 200
|  6>   maxiter 400
|  7> end
|  8>
|  9>
| 10> %pal nprocs 6 end
| 11>
| 12> *xyzfile 0 6 pbe.xyz
| 13>
| 14> $new_job
| 15>
| 16> !RI-B2PLYP def2-TZVP def2-TZVP/C
| 17> !RIJCOSX VERYSLOWCONV
| 18>
| 19> %scf
| 20>   AutoTRAHIter 200
| 21>   maxiter 400
| 22> end
| 23>
| 24>
| 25> %pal nprocs 6 end
| 26>
| 27> *xyzfile 0 4 pbe.xyz
| 28>
| 29>
| 30>
| 31>
| 32>
| 33>                          ****END OF INPUT****
 Total Charge           Charge          ....    0
 Multiplicity           Mult            ....    6
 Number of Electrons    NEL             ....  311
MP2 TOTAL ENERGY:    -3297.361240512 Eh
FINAL SINGLE POINT ENERGY     -3297.361240512211

CARTESIAN COORDINATES (ANGSTROEM)
---------------------------------
  Au     7.199995   11.295055    8.386422
  Au     4.111157    8.266685    8.088506
  Au     5.307869    6.510382    9.876920
  Au     6.183686    9.107953    9.737834
  Au     8.920419    9.549246    9.748702
  Au     8.141791    6.838977    9.780569
  Au    10.395038    7.732136    8.338224
  Au     6.763064    4.706310    8.475481
  Au     8.917761    5.726333    7.115372
  Au     6.528172    5.276844    5.767524
  Au     7.474136    7.823860    4.999766
  Au     4.774137    7.375446    5.581616
  Au     5.907592    9.761122    6.499622
  Au     8.703410    9.549788    6.874272
  Au    10.166821    7.628976    5.546462
  Fe     6.708028    7.381235    7.590821

 Multiplicity           Mult            ....    4
 Number of Electrons    NEL             ....  311
 Basis Dimension        Dim             ....  645

ORBITAL ENERGIES
----------------
                 SPIN UP ORBITALS
  NO   OCC          E(Eh)            E(eV)
   0   1.0000    -258.345529     -7029.9392
   1   1.0000     -30.903212      -840.9192
   2   1.0000     -26.611518      -724.1362
   3   1.0000     -26.610955      -724.1209
   4   1.0000     -26.582092      -723.3355
   5   1.0000      -4.405536      -119.8807
   6   1.0000      -4.404411      -119.8501
   7   1.0000      -4.403508      -119.8255
   8   1.0000      -4.403434      -119.8235
   9   1.0000      -4.402385      -119.7950
  10   1.0000      -4.402226      -119.7906
  11   1.0000      -4.399381      -119.7132
  12   1.0000      -4.398341      -119.6849
  13   1.0000      -4.398088      -119.6781
  14   1.0000      -4.394718      -119.5864
  15   1.0000      -4.394698      -119.5858
  16   1.0000      -4.394666      -119.5850
  17   1.0000      -4.394634      -119.5841
  18   1.0000      -4.393155      -119.5438
  19   1.0000      -4.392938      -119.5379
  20   1.0000      -3.916879      -106.5837
  21   1.0000      -2.647481       -72.0416
  22   1.0000      -2.645635       -71.9914
  23   1.0000      -2.584447       -70.3264
  24   1.0000      -2.526307       -68.7443
  25   1.0000      -2.525484       -68.7219
  26   1.0000      -2.524387       -68.6921
  27   1.0000      -2.523814       -68.6765
  28   1.0000      -2.523751       -68.6747
  29   1.0000      -2.523619       -68.6712
  30   1.0000      -2.522890       -68.6513
  31   1.0000      -2.522862       -68.6506
  32   1.0000      -2.520765       -68.5935
  33   1.0000      -2.520658       -68.5906
  34   1.0000      -2.520026       -68.5734
  35   1.0000      -2.519389       -68.5561
  36   1.0000      -2.519238       -68.5520
  37   1.0000      -2.518894       -68.5426
  38   1.0000      -2.518620       -68.5351
  39   1.0000      -2.518446       -68.5304
  40   1.0000      -2.517916       -68.5160
  41   1.0000      -2.517662       -68.5091
  42   1.0000      -2.517413       -68.5023
  43   1.0000      -2.517287       -68.4988
  44   1.0000      -2.516802       -68.4857
  45   1.0000      -2.516688       -68.4826
  46   1.0000      -2.516290       -68.4717
  47   1.0000      -2.514804       -68.4313
  48   1.0000      -2.514717       -68.4289
  49   1.0000      -2.514217       -68.4153
  50   1.0000      -2.513573       -68.3978
  51   1.0000      -2.513145       -68.3861
  52   1.0000      -2.512725       -68.3747
  53   1.0000      -2.512550       -68.3700
  54   1.0000      -2.512383       -68.3654
  55   1.0000      -2.511801       -68.3496
  56   1.0000      -2.511769       -68.3487
  57   1.0000      -2.511497       -68.3413
  58   1.0000      -2.510471       -68.3134
  59   1.0000      -2.510141       -68.3044
  60   1.0000      -2.510067       -68.3024
  61   1.0000      -2.509940       -68.2989
  62   1.0000      -2.509052       -68.2748
  63   1.0000      -2.509004       -68.2735
  64   1.0000      -2.508790       -68.2676
  65   1.0000      -2.508478       -68.2592
  66   1.0000      -2.508397       -68.2570
  67   1.0000      -2.508370       -68.2562
  68   1.0000      -2.507677       -68.2374
  69   1.0000      -0.568567       -15.4715
  70   1.0000      -0.568309       -15.4645
  71   1.0000      -0.544456       -14.8154
  72   1.0000      -0.541416       -14.7327
  73   1.0000      -0.521069       -14.1790
  74   1.0000      -0.493159       -13.4195
  75   1.0000      -0.475961       -12.9516
  76   1.0000      -0.472397       -12.8546
  77   1.0000      -0.471893       -12.8409
  78   1.0000      -0.469883       -12.7862
  79   1.0000      -0.469196       -12.7675
  80   1.0000      -0.464762       -12.6468
  81   1.0000      -0.459345       -12.4994
  82   1.0000      -0.458409       -12.4739
  83   1.0000      -0.456635       -12.4257
  84   1.0000      -0.456515       -12.4224
  85   1.0000      -0.454725       -12.3737
  86   1.0000      -0.454544       -12.3688
  87   1.0000      -0.450887       -12.2693
  88   1.0000      -0.450212       -12.2509
  89   1.0000      -0.449174       -12.2226
  90   1.0000      -0.447799       -12.1852
  91   1.0000      -0.445517       -12.1231
  92   1.0000      -0.445018       -12.1096
  93   1.0000      -0.440279       -11.9806
  94   1.0000      -0.438662       -11.9366
  95   1.0000      -0.435762       -11.8577
  96   1.0000      -0.433970       -11.8089
  97   1.0000      -0.432160       -11.7597
  98   1.0000      -0.431795       -11.7497
  99   1.0000      -0.428456       -11.6589
 100   1.0000      -0.424049       -11.5390
 101   1.0000      -0.422791       -11.5047
 102   1.0000      -0.421136       -11.4597
 103   1.0000      -0.420120       -11.4320
 104   1.0000      -0.418576       -11.3900
 105   1.0000      -0.411414       -11.1951
 106   1.0000      -0.409546       -11.1443
 107   1.0000      -0.406188       -11.0529
 108   1.0000      -0.404190       -10.9986
 109   1.0000      -0.398746       -10.8504
 110   1.0000      -0.394429       -10.7329
 111   1.0000      -0.393461       -10.7066
 112   1.0000      -0.388996       -10.5851
 113   1.0000      -0.388098       -10.5607
 114   1.0000      -0.385244       -10.4830
 115   1.0000      -0.382850       -10.4179
 116   1.0000      -0.380915       -10.3652
 117   1.0000      -0.379667       -10.3313
 118   1.0000      -0.377842       -10.2816
 119   1.0000      -0.376875       -10.2553
 120   1.0000      -0.375505       -10.2180
 121   1.0000      -0.372598       -10.1389
 122   1.0000      -0.371455       -10.1078
 123   1.0000      -0.370564       -10.0836
 124   1.0000      -0.368808       -10.0358
 125   1.0000      -0.368250       -10.0206
 126   1.0000      -0.366225        -9.9655
 127   1.0000      -0.365887        -9.9563
 128   1.0000      -0.363928        -9.9030
 129   1.0000      -0.363437        -9.8896
 130   1.0000      -0.362582        -9.8664
 131   1.0000      -0.360090        -9.7986
 132   1.0000      -0.359541        -9.7836
 133   1.0000      -0.358420        -9.7531
 134   1.0000      -0.357643        -9.7320
 135   1.0000      -0.354343        -9.6422
 136   1.0000      -0.352678        -9.5969
 137   1.0000      -0.351215        -9.5571
 138   1.0000      -0.349989        -9.5237
 139   1.0000      -0.348327        -9.4784
 140   1.0000      -0.347565        -9.4577
 141   1.0000      -0.344842        -9.3836
 142   1.0000      -0.341982        -9.3058
 143   1.0000      -0.337914        -9.1951
 144   1.0000      -0.333220        -9.0674
 145   1.0000      -0.332078        -9.0363
 146   1.0000      -0.329767        -8.9734
 147   1.0000      -0.328807        -8.9473
 148   1.0000      -0.325917        -8.8687
 149   1.0000      -0.322604        -8.7785
 150   1.0000      -0.320658        -8.7255
 151   1.0000      -0.315726        -8.5913
 152   1.0000      -0.310401        -8.4464
 153   1.0000      -0.256040        -6.9672
 154   1.0000      -0.236345        -6.4313
 155   1.0000      -0.215523        -5.8647
 156   1.0000      -0.213151        -5.8001
 157   0.0000      -0.121150        -3.2967
 158   0.0000      -0.097545        -2.6543
 159   0.0000      -0.076244        -2.0747
 160   0.0000      -0.072445        -1.9713
 161   0.0000      -0.055652        -1.5144

                 SPIN DOWN ORBITALS
  NO   OCC          E(Eh)            E(eV)
   0   1.0000    -258.343638     -7029.8878
   1   1.0000     -30.810069      -838.3846
   2   1.0000     -26.518956      -721.6175
   3   1.0000     -26.518807      -721.6134
   4   1.0000     -26.511698      -721.4200
   5   1.0000      -4.405866      -119.8897
   6   1.0000      -4.404194      -119.8442
   7   1.0000      -4.403173      -119.8164
   8   1.0000      -4.403096      -119.8143
   9   1.0000      -4.402519      -119.7986
  10   1.0000      -4.402356      -119.7942
  11   1.0000      -4.399189      -119.7080
  12   1.0000      -4.398548      -119.6906
  13   1.0000      -4.398292      -119.6836
  14   1.0000      -4.395226      -119.6002
  15   1.0000      -4.395201      -119.5995
  16   1.0000      -4.394318      -119.5755
  17   1.0000      -4.394281      -119.5745
  18   1.0000      -4.393710      -119.5589
  19   1.0000      -4.393491      -119.5530
  20   1.0000      -3.671530       -99.9074
  21   1.0000      -2.525380       -68.7191
  22   1.0000      -2.525290       -68.7166
  23   1.0000      -2.524013       -68.6819
  24   1.0000      -2.523908       -68.6790
  25   1.0000      -2.523833       -68.6770
  26   1.0000      -2.523081       -68.6565
  27   1.0000      -2.522955       -68.6531
  28   1.0000      -2.522250       -68.6339
  29   1.0000      -2.520876       -68.5965
  30   1.0000      -2.519781       -68.5667
  31   1.0000      -2.519395       -68.5562
  32   1.0000      -2.519074       -68.5475
  33   1.0000      -2.518572       -68.5338
  34   1.0000      -2.518361       -68.5281
  35   1.0000      -2.518209       -68.5240
  36   1.0000      -2.518186       -68.5233
  37   1.0000      -2.517738       -68.5111
  38   1.0000      -2.517385       -68.5015
  39   1.0000      -2.517305       -68.4994
  40   1.0000      -2.517204       -68.4966
  41   1.0000      -2.516770       -68.4848
  42   1.0000      -2.516603       -68.4802
  43   1.0000      -2.516248       -68.4706
  44   1.0000      -2.515053       -68.4381
  45   1.0000      -2.514519       -68.4236
  46   1.0000      -2.513968       -68.4085
  47   1.0000      -2.513770       -68.4032
  48   1.0000      -2.513751       -68.4026
  49   1.0000      -2.513264       -68.3894
  50   1.0000      -2.512083       -68.3573
  51   1.0000      -2.511892       -68.3521
  52   1.0000      -2.511854       -68.3510
  53   1.0000      -2.511751       -68.3482
  54   1.0000      -2.511622       -68.3447
  55   1.0000      -2.511200       -68.3332
  56   1.0000      -2.510934       -68.3260
  57   1.0000      -2.510280       -68.3082
  58   1.0000      -2.509940       -68.2990
  59   1.0000      -2.509721       -68.2930
  60   1.0000      -2.509365       -68.2833
  61   1.0000      -2.509225       -68.2795
  62   1.0000      -2.509121       -68.2767
  63   1.0000      -2.508619       -68.2630
  64   1.0000      -2.508301       -68.2543
  65   1.0000      -2.508215       -68.2520
  66   1.0000      -2.353419       -64.0398
  67   1.0000      -2.342344       -63.7384
  68   1.0000      -2.341459       -63.7143
  69   1.0000      -0.513930       -13.9848
  70   1.0000      -0.481622       -13.1056
  71   1.0000      -0.476754       -12.9731
  72   1.0000      -0.475408       -12.9365
  73   1.0000      -0.472175       -12.8485
  74   1.0000      -0.471103       -12.8194
  75   1.0000      -0.467886       -12.7318
  76   1.0000      -0.466993       -12.7075
  77   1.0000      -0.466199       -12.6859
  78   1.0000      -0.461418       -12.5558
  79   1.0000      -0.460050       -12.5186
  80   1.0000      -0.458454       -12.4752
  81   1.0000      -0.457506       -12.4494
  82   1.0000      -0.456245       -12.4151
  83   1.0000      -0.453522       -12.3410
  84   1.0000      -0.452182       -12.3045
  85   1.0000      -0.450264       -12.2523
  86   1.0000      -0.450026       -12.2458
  87   1.0000      -0.448680       -12.2092
  88   1.0000      -0.446132       -12.1399
  89   1.0000      -0.443382       -12.0650
  90   1.0000      -0.441324       -12.0090
  91   1.0000      -0.437453       -11.9037
  92   1.0000      -0.433774       -11.8036
  93   1.0000      -0.432990       -11.7823
  94   1.0000      -0.432284       -11.7630
  95   1.0000      -0.429327       -11.6826
  96   1.0000      -0.424988       -11.5645
  97   1.0000      -0.423687       -11.5291
  98   1.0000      -0.421457       -11.4684
  99   1.0000      -0.419379       -11.4119
 100   1.0000      -0.412318       -11.2197
 101   1.0000      -0.411480       -11.1969
 102   1.0000      -0.406946       -11.0736
 103   1.0000      -0.406896       -11.0722
 104   1.0000      -0.404778       -11.0146
 105   1.0000      -0.397575       -10.8186
 106   1.0000      -0.396732       -10.7956
 107   1.0000      -0.390288       -10.6203
 108   1.0000      -0.390152       -10.6166
 109   1.0000      -0.388186       -10.5631
 110   1.0000      -0.388085       -10.5603
 111   1.0000      -0.385785       -10.4977
 112   1.0000      -0.383683       -10.4405
 113   1.0000      -0.383557       -10.4371
 114   1.0000      -0.379289       -10.3210
 115   1.0000      -0.378433       -10.2977
 116   1.0000      -0.376477       -10.2445
 117   1.0000      -0.374364       -10.1870
 118   1.0000      -0.371859       -10.1188
 119   1.0000      -0.370800       -10.0900
 120   1.0000      -0.370226       -10.0744
 121   1.0000      -0.368784       -10.0351
 122   1.0000      -0.366310        -9.9678
 123   1.0000      -0.365648        -9.9498
 124   1.0000      -0.364431        -9.9167
 125   1.0000      -0.364404        -9.9159
 126   1.0000      -0.361627        -9.8404
 127   1.0000      -0.360630        -9.8132
 128   1.0000      -0.359895        -9.7932
 129   1.0000      -0.359044        -9.7701
 130   1.0000      -0.355358        -9.6698
 131   1.0000      -0.354124        -9.6362
 132   1.0000      -0.352778        -9.5996
 133   1.0000      -0.351311        -9.5597
 134   1.0000      -0.349477        -9.5097
 135   1.0000      -0.349036        -9.4978
 136   1.0000      -0.345590        -9.4040
 137   1.0000      -0.343874        -9.3573
 138   1.0000      -0.342052        -9.3077
 139   1.0000      -0.338250        -9.2043
 140   1.0000      -0.333499        -9.0750
 141   1.0000      -0.332936        -9.0597
 142   1.0000      -0.331171        -9.0116
 143   1.0000      -0.330927        -9.0050
 144   1.0000      -0.328331        -8.9343
 145   1.0000      -0.326177        -8.8757
 146   1.0000      -0.322624        -8.7790
 147   1.0000      -0.318183        -8.6582
 148   1.0000      -0.310446        -8.4477
 149   1.0000      -0.261352        -7.1118
 150   1.0000      -0.243781        -6.6336
 151   1.0000      -0.225971        -6.1490
 152   1.0000      -0.224417        -6.1067
 153   1.0000      -0.202131        -5.5003
 154   0.0000      -0.097268        -2.6468
 155   0.0000      -0.077892        -2.1195
 156   0.0000      -0.072052        -1.9606
 157   0.0000      -0.067656        -1.8410
 158   0.0000      -0.057700        -1.5701

MULLIKEN ATOMIC CHARGES AND SPIN POPULATIONS
--------------------------------------------
   0 Au:    0.476313    0.030546
   1 Au:    0.265288   -0.003855
   2 Au:    0.311100   -0.128220
   3 Au:   -0.208037   -0.015559
   4 Au:    0.196514   -0.038835
   5 Au:   -0.085278   -0.008660
   6 Au:    0.197491   -0.039618
   7 Au:    0.310689   -0.129077
   8 Au:   -0.209183   -0.015796
   9 Au:    0.266077   -0.004507
  10 Au:   -0.012160    0.019142
  11 Au:    0.373738   -0.041057
  12 Au:   -0.010914    0.018754
  13 Au:   -0.566316   -0.202147
  14 Au:    0.477532    0.030314
  15 Fe:   -1.782855    3.528575
Sum of atomic charges         :    0.0000000

LOEWDIN ATOMIC CHARGES AND SPIN POPULATIONS
-------------------------------------------
   0 Au:    0.115551   -0.015400
   1 Au:    0.050509   -0.038368
   2 Au:    0.064252   -0.113824
   3 Au:   -0.070412   -0.002674
   4 Au:    0.014757   -0.067012
   5 Au:   -0.016402   -0.022127
   6 Au:    0.015143   -0.067531
   7 Au:    0.064301   -0.114399
   8 Au:   -0.070372   -0.003016
   9 Au:    0.050535   -0.038767
  10 Au:   -0.025052    0.011969
  11 Au:    0.067074   -0.043403
  12 Au:   -0.024815    0.011885
  13 Au:   -0.098942   -0.102863
  14 Au:    0.115743   -0.015724
  15 Fe:   -0.251870    3.621251

  Mayer bond orders larger than 0.100000
B(  0-Au,  3-Au) :   0.2259 B(  0-Au,  4-Au) :   0.1617 B(  0-Au, 12-Au) :   0.2367
B(  0-Au, 13-Au) :   0.3494 B(  1-Au,  2-Au) :   0.1461 B(  1-Au,  3-Au) :   0.2029
B(  1-Au, 11-Au) :   0.1997 B(  1-Au, 12-Au) :   0.1580 B(  1-Au, 15-Fe) :   0.3733
B(  2-Au,  3-Au) :   0.2673 B(  2-Au,  5-Au) :   0.1735 B(  2-Au,  7-Au) :   0.2145
B(  2-Au, 15-Fe) :   0.3469 B(  3-Au,  4-Au) :   0.2786 B(  3-Au,  5-Au) :   0.1117
B(  3-Au, 12-Au) :   0.1127 B(  3-Au, 13-Au) :   0.1077 B(  3-Au, 15-Fe) :   0.4236
B(  4-Au,  5-Au) :   0.2274 B(  4-Au,  6-Au) :   0.2968 B(  4-Au, 13-Au) :   0.2619
B(  5-Au,  6-Au) :   0.2270 B(  5-Au,  7-Au) :   0.1728 B(  5-Au,  8-Au) :   0.1129
B(  5-Au, 15-Fe) :   0.5462 B(  6-Au,  8-Au) :   0.2777 B(  6-Au, 13-Au) :   0.2620
B(  6-Au, 14-Au) :   0.1623 B(  7-Au,  8-Au) :   0.2680 B(  7-Au,  9-Au) :   0.1468
B(  7-Au, 15-Fe) :   0.3467 B(  8-Au,  9-Au) :   0.2025 B(  8-Au, 10-Au) :   0.1129
B(  8-Au, 13-Au) :   0.1082 B(  8-Au, 14-Au) :   0.2262 B(  8-Au, 15-Fe) :   0.4247
B(  9-Au, 10-Au) :   0.1591 B(  9-Au, 11-Au) :   0.1998 B(  9-Au, 15-Fe) :   0.3721
B( 10-Au, 11-Au) :   0.1871 B( 10-Au, 12-Au) :   0.1247 B( 10-Au, 13-Au) :   0.2538
B( 10-Au, 14-Au) :   0.2362 B( 10-Au, 15-Fe) :   0.5036 B( 11-Au, 12-Au) :   0.1879
B( 11-Au, 15-Fe) :   0.3416 B( 12-Au, 13-Au) :   0.2540 B( 12-Au, 15-Fe) :   0.5027
B( 13-Au, 14-Au) :   0.3493 B( 13-Au, 15-Fe) :   0.1946

MP2 TOTAL ENERGY:    -3297.359280844 Eh
FINAL SINGLE POINT ENERGY     -3297.359280844411

DIPOLE MOMENT
-------------
                                X             Y             Z
Electronic contribution:     22.57879      16.44429       2.31746
Nuclear contribution   :    -22.61812     -16.38915      -2.43387
                        -----------------------------------------
Total Dipole Moment    :     -0.03934       0.05514      -0.11641
                        -----------------------------------------
Magnitude (a.u.)       :      0.13469
Magnitude (Debye)      :      0.34235

Rotational constants in cm-1:     0.000973     0.000956     0.000847
Rotational constants in MHz :    29.160644    28.663220    25.391746

                             ****ORCA TERMINATED NORMALLY****
TOTAL RUN TIME: 0 days 0 hours 33 minutes 22 seconds 150 msec
