                         Program Version 5.0.3 -  RELEASE  -
|  1> !PBE def2-TZVP VERYSLOWCONV
|  2>
|  3> %scf
|  4>   AutoTRAHIter 200
|  5>   maxiter 400
|  6> end
|  7>
|  8>
|  9> %pal nprocs 6 end
| 10>
| 11> *xyzfile 0 6 pbe.xyz
| 12>
| 13> $new_job
| 14>
| 15> !PBE def2-TZVP VERYSLOWCONV
| 16>
| 17> %scf
| 18>   AutoTRAHIter 200
| 19>   maxiter 400
| 20> end
| 21>
| 22>
| 23> %pal nprocs 6 end
| 24>
| 25> *xyzfile 0 4 pbe.xyz
| 26>
| 27>
| 28>
| 29>
| 30>
| 31>                          ****END OF INPUT****
 Total Charge           Charge          ....    0
 Multiplicity           Mult            ....    6
 Number of Electrons    NEL             ....  311
FINAL SINGLE POINT ENERGY     -3300.914356110811

CARTESIAN COORDINATES (ANGSTROEM)
---------------------------------
  Au     7.199995   11.295055    8.386422
  Au     4.111157    8.266685    8.088506
  Au     5.307869    6.510382    9.876920
  Au     6.183686    9.107953    9.737834
  Au     8.920419    9.549246    9.748702
  Au     8.141791    6.838977    9.780569
  Au    10.395038    7.732136    8.338224
  Au     6.763064    4.706310    8.475481
  Au     8.917761    5.726333    7.115372
  Au     6.528172    5.276844    5.767524
  Au     7.474136    7.823860    4.999766
  Au     4.774137    7.375446    5.581616
  Au     5.907592    9.761122    6.499622
  Au     8.703410    9.549788    6.874272
  Au    10.166821    7.628976    5.546462
  Fe     6.708028    7.381235    7.590821

 Multiplicity           Mult            ....    4
 Number of Electrons    NEL             ....  311
 Basis Dimension        Dim             ....  645

ORBITAL ENERGIES
----------------
                 SPIN UP ORBITALS
  NO   OCC          E(Eh)            E(eV)
   0   1.0000    -254.754888     -6932.2329
   1   1.0000     -29.590016      -805.1853
   2   1.0000     -25.532961      -694.7872
   3   1.0000     -25.529344      -694.6888
   4   1.0000     -25.513834      -694.2667
   5   1.0000      -4.035193      -109.8032
   6   1.0000      -4.034182      -109.7757
   7   1.0000      -4.034111      -109.7737
   8   1.0000      -4.033645      -109.7611
   9   1.0000      -4.033510      -109.7574
  10   1.0000      -4.033098      -109.7462
  11   1.0000      -4.028198      -109.6128
  12   1.0000      -4.027865      -109.6038
  13   1.0000      -4.027669      -109.5984
  14   1.0000      -4.025148      -109.5299
  15   1.0000      -4.025122      -109.5291
  16   1.0000      -4.024841      -109.5215
  17   1.0000      -4.024816      -109.5208
  18   1.0000      -4.024072      -109.5006
  19   1.0000      -4.023901      -109.4959
  20   1.0000      -3.370705       -91.7215
  21   1.0000      -2.251356       -61.2625
  22   1.0000      -2.251258       -61.2599
  23   1.0000      -2.251042       -61.2540
  24   1.0000      -2.250831       -61.2482
  25   1.0000      -2.250719       -61.2452
  26   1.0000      -2.249645       -61.2160
  27   1.0000      -2.248542       -61.1859
  28   1.0000      -2.248050       -61.1726
  29   1.0000      -2.246704       -61.1359
  30   1.0000      -2.246043       -61.1179
  31   1.0000      -2.245437       -61.1015
  32   1.0000      -2.245134       -61.0932
  33   1.0000      -2.244668       -61.0805
  34   1.0000      -2.244184       -61.0673
  35   1.0000      -2.243732       -61.0551
  36   1.0000      -2.243680       -61.0536
  37   1.0000      -2.243478       -61.0481
  38   1.0000      -2.243272       -61.0425
  39   1.0000      -2.242675       -61.0263
  40   1.0000      -2.242494       -61.0214
  41   1.0000      -2.242416       -61.0193
  42   1.0000      -2.242214       -61.0137
  43   1.0000      -2.241607       -60.9972
  44   1.0000      -2.241471       -60.9935
  45   1.0000      -2.239879       -60.9502
  46   1.0000      -2.239638       -60.9436
  47   1.0000      -2.239587       -60.9423
  48   1.0000      -2.239305       -60.9346
  49   1.0000      -2.239077       -60.9284
  50   1.0000      -2.238697       -60.9180
  51   1.0000      -2.238505       -60.9128
  52   1.0000      -2.238103       -60.9019
  53   1.0000      -2.237868       -60.8955
  54   1.0000      -2.237684       -60.8905
  55   1.0000      -2.237119       -60.8751
  56   1.0000      -2.237072       -60.8738
  57   1.0000      -2.236959       -60.8708
  58   1.0000      -2.236502       -60.8583
  59   1.0000      -2.236315       -60.8532
  60   1.0000      -2.236105       -60.8475
  61   1.0000      -2.235926       -60.8426
  62   1.0000      -2.234594       -60.8064
  63   1.0000      -2.234558       -60.8054
  64   1.0000      -2.234494       -60.8037
  65   1.0000      -2.233722       -60.7827
  66   1.0000      -2.200118       -59.8683
  67   1.0000      -2.193343       -59.6839
  68   1.0000      -2.160125       -58.7800
  69   1.0000      -0.435929       -11.8622
  70   1.0000      -0.395083       -10.7508
  71   1.0000      -0.392989       -10.6938
  72   1.0000      -0.392958       -10.6929
  73   1.0000      -0.379985       -10.3399
  74   1.0000      -0.379552       -10.3281
  75   1.0000      -0.371373       -10.1056
  76   1.0000      -0.371271       -10.1028
  77   1.0000      -0.367360        -9.9964
  78   1.0000      -0.364858        -9.9283
  79   1.0000      -0.364770        -9.9259
  80   1.0000      -0.360631        -9.8133
  81   1.0000      -0.355798        -9.6818
  82   1.0000      -0.353786        -9.6270
  83   1.0000      -0.353309        -9.6140
  84   1.0000      -0.350919        -9.5490
  85   1.0000      -0.350698        -9.5430
  86   1.0000      -0.348036        -9.4705
  87   1.0000      -0.346107        -9.4180
  88   1.0000      -0.344475        -9.3736
  89   1.0000      -0.342122        -9.3096
  90   1.0000      -0.341816        -9.3013
  91   1.0000      -0.336176        -9.1478
  92   1.0000      -0.334582        -9.1044
  93   1.0000      -0.333818        -9.0836
  94   1.0000      -0.331116        -9.0101
  95   1.0000      -0.328744        -8.9456
  96   1.0000      -0.325696        -8.8626
  97   1.0000      -0.323967        -8.8156
  98   1.0000      -0.323403        -8.8002
  99   1.0000      -0.322080        -8.7642
 100   1.0000      -0.318965        -8.6795
 101   1.0000      -0.316593        -8.6149
 102   1.0000      -0.315706        -8.5908
 103   1.0000      -0.312872        -8.5137
 104   1.0000      -0.309842        -8.4312
 105   1.0000      -0.307402        -8.3648
 106   1.0000      -0.306887        -8.3508
 107   1.0000      -0.304017        -8.2727
 108   1.0000      -0.298586        -8.1249
 109   1.0000      -0.298263        -8.1161
 110   1.0000      -0.293888        -7.9971
 111   1.0000      -0.292473        -7.9586
 112   1.0000      -0.288165        -7.8414
 113   1.0000      -0.287857        -7.8330
 114   1.0000      -0.286133        -7.7861
 115   1.0000      -0.283777        -7.7220
 116   1.0000      -0.282903        -7.6982
 117   1.0000      -0.280870        -7.6429
 118   1.0000      -0.279056        -7.5935
 119   1.0000      -0.278418        -7.5761
 120   1.0000      -0.277900        -7.5621
 121   1.0000      -0.275930        -7.5084
 122   1.0000      -0.273395        -7.4395
 123   1.0000      -0.272989        -7.4284
 124   1.0000      -0.272112        -7.4045
 125   1.0000      -0.271010        -7.3746
 126   1.0000      -0.268081        -7.2949
 127   1.0000      -0.267693        -7.2843
 128   1.0000      -0.267112        -7.2685
 129   1.0000      -0.265114        -7.2141
 130   1.0000      -0.263943        -7.1823
 131   1.0000      -0.263308        -7.1650
 132   1.0000      -0.262748        -7.1497
 133   1.0000      -0.260687        -7.0937
 134   1.0000      -0.260473        -7.0878
 135   1.0000      -0.258607        -7.0370
 136   1.0000      -0.255561        -6.9542
 137   1.0000      -0.255101        -6.9416
 138   1.0000      -0.253941        -6.9101
 139   1.0000      -0.253842        -6.9074
 140   1.0000      -0.252092        -6.8598
 141   1.0000      -0.251374        -6.8402
 142   1.0000      -0.250361        -6.8127
 143   1.0000      -0.248765        -6.7692
 144   1.0000      -0.246923        -6.7191
 145   1.0000      -0.246828        -6.7165
 146   1.0000      -0.245569        -6.6823
 147   1.0000      -0.243649        -6.6300
 148   1.0000      -0.243481        -6.6255
 149   1.0000      -0.242875        -6.6090
 150   1.0000      -0.241032        -6.5588
 151   1.0000      -0.236607        -6.4384
 152   1.0000      -0.228187        -6.2093
 153   1.0000      -0.224441        -6.1074
 154   1.0000      -0.212974        -5.7953
 155   1.0000      -0.200809        -5.4643
 156   1.0000      -0.198611        -5.4045
 157   0.0000      -0.184043        -5.0081
 158   0.0000      -0.156643        -4.2625
 159   0.0000      -0.138742        -3.7754
 160   0.0000      -0.133779        -3.6403
 161   0.0000      -0.126610        -3.4452

                 SPIN DOWN ORBITALS
  NO   OCC          E(Eh)            E(eV)
   0   1.0000    -254.754248     -6932.2155
   1   1.0000     -29.531364      -803.5893
   2   1.0000     -25.485117      -693.4853
   3   1.0000     -25.483171      -693.4323
   4   1.0000     -25.475069      -693.2119
   5   1.0000      -4.034971      -109.7971
   6   1.0000      -4.033632      -109.7607
   7   1.0000      -4.033558      -109.7587
   8   1.0000      -4.033234      -109.7499
   9   1.0000      -4.033097      -109.7461
  10   1.0000      -4.032898      -109.7407
  11   1.0000      -4.027874      -109.6040
  12   1.0000      -4.027705      -109.5994
  13   1.0000      -4.027508      -109.5941
  14   1.0000      -4.025590      -109.5419
  15   1.0000      -4.025559      -109.5410
  16   1.0000      -4.024606      -109.5151
  17   1.0000      -4.024436      -109.5105
  18   1.0000      -4.024348      -109.5081
  19   1.0000      -4.024319      -109.5073
  20   1.0000      -3.237035       -88.0842
  21   1.0000      -2.250969       -61.2520
  22   1.0000      -2.250883       -61.2496
  23   1.0000      -2.250692       -61.2444
  24   1.0000      -2.250521       -61.2398
  25   1.0000      -2.250249       -61.2324
  26   1.0000      -2.249057       -61.1999
  27   1.0000      -2.247905       -61.1686
  28   1.0000      -2.247372       -61.1541
  29   1.0000      -2.245952       -61.1155
  30   1.0000      -2.245687       -61.1083
  31   1.0000      -2.244926       -61.0875
  32   1.0000      -2.244534       -61.0769
  33   1.0000      -2.244010       -61.0626
  34   1.0000      -2.243907       -61.0598
  35   1.0000      -2.243553       -61.0502
  36   1.0000      -2.243438       -61.0471
  37   1.0000      -2.243281       -61.0428
  38   1.0000      -2.242991       -61.0349
  39   1.0000      -2.242393       -61.0186
  40   1.0000      -2.242114       -61.0110
  41   1.0000      -2.241990       -61.0077
  42   1.0000      -2.241942       -61.0064
  43   1.0000      -2.241724       -61.0004
  44   1.0000      -2.241583       -60.9966
  45   1.0000      -2.240036       -60.9545
  46   1.0000      -2.239767       -60.9472
  47   1.0000      -2.239695       -60.9452
  48   1.0000      -2.239282       -60.9340
  49   1.0000      -2.238690       -60.9178
  50   1.0000      -2.238642       -60.9166
  51   1.0000      -2.238286       -60.9069
  52   1.0000      -2.238098       -60.9017
  53   1.0000      -2.237416       -60.8832
  54   1.0000      -2.237265       -60.8791
  55   1.0000      -2.237232       -60.8782
  56   1.0000      -2.237134       -60.8755
  57   1.0000      -2.237002       -60.8719
  58   1.0000      -2.236842       -60.8676
  59   1.0000      -2.236641       -60.8621
  60   1.0000      -2.236634       -60.8619
  61   1.0000      -2.236592       -60.8608
  62   1.0000      -2.235252       -60.8243
  63   1.0000      -2.234608       -60.8068
  64   1.0000      -2.234219       -60.7962
  65   1.0000      -2.234174       -60.7950
  66   1.0000      -2.059486       -56.0415
  67   1.0000      -2.057432       -55.9856
  68   1.0000      -2.044041       -55.6212
  69   1.0000      -0.432449       -11.7675
  70   1.0000      -0.394501       -10.7349
  71   1.0000      -0.392732       -10.6868
  72   1.0000      -0.391831       -10.6623
  73   1.0000      -0.376467       -10.2442
  74   1.0000      -0.374289       -10.1849
  75   1.0000      -0.369468       -10.0537
  76   1.0000      -0.367614       -10.0033
  77   1.0000      -0.365999        -9.9593
  78   1.0000      -0.360896        -9.8205
  79   1.0000      -0.360820        -9.8184
  80   1.0000      -0.358979        -9.7683
  81   1.0000      -0.353968        -9.6320
  82   1.0000      -0.353514        -9.6196
  83   1.0000      -0.351892        -9.5755
  84   1.0000      -0.349780        -9.5180
  85   1.0000      -0.349681        -9.5153
  86   1.0000      -0.347082        -9.4446
  87   1.0000      -0.345770        -9.4089
  88   1.0000      -0.344191        -9.3659
  89   1.0000      -0.341906        -9.3037
  90   1.0000      -0.340093        -9.2544
  91   1.0000      -0.335936        -9.1413
  92   1.0000      -0.334567        -9.1040
  93   1.0000      -0.332540        -9.0489
  94   1.0000      -0.330838        -9.0026
  95   1.0000      -0.328029        -8.9261
  96   1.0000      -0.324853        -8.8397
  97   1.0000      -0.324242        -8.8231
  98   1.0000      -0.322683        -8.7806
  99   1.0000      -0.321283        -8.7426
 100   1.0000      -0.314127        -8.5478
 101   1.0000      -0.314098        -8.5470
 102   1.0000      -0.311256        -8.4697
 103   1.0000      -0.307723        -8.3736
 104   1.0000      -0.306733        -8.3466
 105   1.0000      -0.301954        -8.2166
 106   1.0000      -0.299585        -8.1521
 107   1.0000      -0.296872        -8.0783
 108   1.0000      -0.294972        -8.0266
 109   1.0000      -0.294481        -8.0132
 110   1.0000      -0.292400        -7.9566
 111   1.0000      -0.290663        -7.9093
 112   1.0000      -0.286195        -7.7878
 113   1.0000      -0.284424        -7.7396
 114   1.0000      -0.284323        -7.7368
 115   1.0000      -0.284097        -7.7307
 116   1.0000      -0.280552        -7.6342
 117   1.0000      -0.279824        -7.6144
 118   1.0000      -0.276974        -7.5368
 119   1.0000      -0.276950        -7.5362
 120   1.0000      -0.276070        -7.5122
 121   1.0000      -0.274212        -7.4617
 122   1.0000      -0.272611        -7.4181
 123   1.0000      -0.271530        -7.3887
 124   1.0000      -0.271179        -7.3792
 125   1.0000      -0.270368        -7.3571
 126   1.0000      -0.268185        -7.2977
 127   1.0000      -0.266765        -7.2590
 128   1.0000      -0.266693        -7.2571
 129   1.0000      -0.264108        -7.1867
 130   1.0000      -0.263663        -7.1746
 131   1.0000      -0.261377        -7.1124
 132   1.0000      -0.261231        -7.1085
 133   1.0000      -0.260445        -7.0871
 134   1.0000      -0.258769        -7.0415
 135   1.0000      -0.256747        -6.9864
 136   1.0000      -0.254621        -6.9286
 137   1.0000      -0.253769        -6.9054
 138   1.0000      -0.250968        -6.8292
 139   1.0000      -0.248797        -6.7701
 140   1.0000      -0.247373        -6.7313
 141   1.0000      -0.247239        -6.7277
 142   1.0000      -0.245708        -6.6860
 143   1.0000      -0.244752        -6.6600
 144   1.0000      -0.244053        -6.6410
 145   1.0000      -0.243168        -6.6169
 146   1.0000      -0.241769        -6.5789
 147   1.0000      -0.229637        -6.2487
 148   1.0000      -0.228313        -6.2127
 149   1.0000      -0.218870        -5.9558
 150   1.0000      -0.210318        -5.7230
 151   1.0000      -0.208536        -5.6745
 152   1.0000      -0.195408        -5.3173
 153   1.0000      -0.174574        -4.7504
 154   0.0000      -0.166195        -4.5224
 155   0.0000      -0.162418        -4.4196
 156   0.0000      -0.152028        -4.1369
 157   0.0000      -0.151952        -4.1348
 158   0.0000      -0.145010        -3.9459

MULLIKEN ATOMIC CHARGES AND SPIN POPULATIONS
--------------------------------------------
   0 Au:    0.491309    0.015839
   1 Au:    0.312326    0.037526
   2 Au:    0.350447   -0.051775
   3 Au:   -0.181133    0.016789
   4 Au:    0.219498   -0.049417
   5 Au:   -0.064153   -0.006978
   6 Au:    0.220851   -0.050538
   7 Au:    0.350569   -0.052324
   8 Au:   -0.182504    0.016210
   9 Au:    0.313003    0.036940
  10 Au:    0.020313    0.048262
  11 Au:    0.398895   -0.012307
  12 Au:    0.020963    0.047824
  13 Au:   -0.572004   -0.100621
  14 Au:    0.491876    0.015330
  15 Fe:   -2.190256    3.089241
Sum of atomic charges         :   -0.0000000

LOEWDIN ATOMIC CHARGES AND SPIN POPULATIONS
-------------------------------------------
   0 Au:    0.104452   -0.014053
   1 Au:    0.071152    0.001314
   2 Au:    0.080869   -0.059086
   3 Au:   -0.035819    0.031518
   4 Au:    0.014860   -0.066413
   5 Au:    0.015090    0.005275
   6 Au:    0.015123   -0.067202
   7 Au:    0.081071   -0.059558
   8 Au:   -0.035745    0.031106
   9 Au:    0.071121    0.000919
  10 Au:    0.006125    0.043173
  11 Au:    0.080272   -0.015718
  12 Au:    0.006312    0.043077
  13 Au:   -0.077474   -0.064187
  14 Au:    0.104499   -0.014606
  15 Fe:   -0.501907    3.204439

  Mayer bond orders larger than 0.100000
B(  0-Au,  3-Au) :   0.2569 B(  0-Au,  4-Au) :   0.2054 B(  0-Au, 12-Au) :   0.2806
B(  0-Au, 13-Au) :   0.3885 B(  1-Au,  2-Au) :   0.1909 B(  1-Au,  3-Au) :   0.2211
B(  1-Au, 11-Au) :   0.2371 B(  1-Au, 12-Au) :   0.1749 B(  1-Au, 15-Fe) :   0.3985
B(  2-Au,  3-Au) :   0.2936 B(  2-Au,  5-Au) :   0.1950 B(  2-Au,  7-Au) :   0.2415
B(  2-Au, 15-Fe) :   0.3603 B(  3-Au,  4-Au) :   0.3032 B(  3-Au,  5-Au) :   0.1357
B(  3-Au, 12-Au) :   0.1327 B(  3-Au, 13-Au) :   0.1033 B(  3-Au, 15-Fe) :   0.4633
B(  4-Au,  5-Au) :   0.2381 B(  4-Au,  6-Au) :   0.3365 B(  4-Au, 13-Au) :   0.2806
B(  5-Au,  6-Au) :   0.2378 B(  5-Au,  7-Au) :   0.1940 B(  5-Au,  8-Au) :   0.1370
B(  5-Au, 15-Fe) :   0.5590 B(  6-Au,  8-Au) :   0.3017 B(  6-Au, 13-Au) :   0.2805
B(  6-Au, 14-Au) :   0.2062 B(  7-Au,  8-Au) :   0.2943 B(  7-Au,  9-Au) :   0.1914
B(  7-Au, 15-Fe) :   0.3603 B(  8-Au,  9-Au) :   0.2208 B(  8-Au, 10-Au) :   0.1329
B(  8-Au, 13-Au) :   0.1037 B(  8-Au, 14-Au) :   0.2571 B(  8-Au, 15-Fe) :   0.4644
B(  9-Au, 10-Au) :   0.1759 B(  9-Au, 11-Au) :   0.2375 B(  9-Au, 15-Fe) :   0.3972
B( 10-Au, 11-Au) :   0.2125 B( 10-Au, 12-Au) :   0.1534 B( 10-Au, 13-Au) :   0.2513
B( 10-Au, 14-Au) :   0.2800 B( 10-Au, 15-Fe) :   0.5121 B( 11-Au, 12-Au) :   0.2136
B( 11-Au, 15-Fe) :   0.3404 B( 12-Au, 13-Au) :   0.2515 B( 12-Au, 15-Fe) :   0.5116
B( 13-Au, 14-Au) :   0.3882 B( 13-Au, 15-Fe) :   0.2497

FINAL SINGLE POINT ENERGY     -3300.905065924770

DIPOLE MOMENT
-------------
                                X             Y             Z
Electronic contribution:     22.58885      16.43275       2.34435
Nuclear contribution   :    -22.61812     -16.38915      -2.43387
                        -----------------------------------------
Total Dipole Moment    :     -0.02927       0.04360      -0.08952
                        -----------------------------------------
Magnitude (a.u.)       :      0.10379
Magnitude (Debye)      :      0.26382

Rotational constants in cm-1:     0.000973     0.000956     0.000847
Rotational constants in MHz :    29.160644    28.663220    25.391746

                             ****ORCA TERMINATED NORMALLY****
TOTAL RUN TIME: 0 days 0 hours 13 minutes 46 seconds 674 msec
