                         Program Version 5.0.3 -  RELEASE  -
|  1> !R2SCAN def2-TZVP VERYSLOWCONV
|  2>
|  3> %scf
|  4>   AutoTRAHIter 200
|  5>   maxiter 400
|  6> end
|  7>
|  8> %pal nprocs 6 end
|  9>
| 10> *xyzfile 0 6 pbe.xyz
| 11>
| 12> $new_job
| 13>
| 14> !R2SCAN def2-TZVP VERYSLOWCONV
| 15> %scf
| 16>   AutoTRAHIter 200
| 17>   maxiter 400
| 18> end
| 19>
| 20>
| 21> %pal nprocs 6 end
| 22>
| 23> *xyzfile 0 4 pbe.xyz
| 24>
| 25>
| 26>
| 27>
| 28>
| 29>                          ****END OF INPUT****
 Total Charge           Charge          ....    0
 Multiplicity           Mult            ....    6
 Number of Electrons    NEL             ....  311
FINAL SINGLE POINT ENERGY     -3301.432636400502

CARTESIAN COORDINATES (ANGSTROEM)
---------------------------------
  Au     7.199995   11.295055    8.386422
  Au     4.111157    8.266685    8.088506
  Au     5.307869    6.510382    9.876920
  Au     6.183686    9.107953    9.737834
  Au     8.920419    9.549246    9.748702
  Au     8.141791    6.838977    9.780569
  Au    10.395038    7.732136    8.338224
  Au     6.763064    4.706310    8.475481
  Au     8.917761    5.726333    7.115372
  Au     6.528172    5.276844    5.767524
  Au     7.474136    7.823860    4.999766
  Au     4.774137    7.375446    5.581616
  Au     5.907592    9.761122    6.499622
  Au     8.703410    9.549788    6.874272
  Au    10.166821    7.628976    5.546462
  Fe     6.708028    7.381235    7.590821

 Multiplicity           Mult            ....    4
 Number of Electrons    NEL             ....  311
 Basis Dimension        Dim             ....  645

ORBITAL ENERGIES
----------------
                 SPIN UP ORBITALS
  NO   OCC          E(Eh)            E(eV)
   0   1.0000    -255.638616     -6956.2804
   1   1.0000     -29.934681      -814.5641
   2   1.0000     -25.772845      -701.3148
   3   1.0000     -25.769706      -701.2293
   4   1.0000     -25.752047      -700.7488
   5   1.0000      -4.126367      -112.2841
   6   1.0000      -4.125051      -112.2483
   7   1.0000      -4.124971      -112.2462
   8   1.0000      -4.124488      -112.2330
   9   1.0000      -4.124252      -112.2266
  10   1.0000      -4.123663      -112.2106
  11   1.0000      -4.119392      -112.0943
  12   1.0000      -4.118507      -112.0703
  13   1.0000      -4.118289      -112.0644
  14   1.0000      -4.115868      -111.9985
  15   1.0000      -4.115776      -111.9960
  16   1.0000      -4.115666      -111.9930
  17   1.0000      -4.115585      -111.9908
  18   1.0000      -4.114701      -111.9667
  19   1.0000      -4.114508      -111.9614
  20   1.0000      -3.517322       -95.7112
  21   1.0000      -2.314986       -62.9940
  22   1.0000      -2.314739       -62.9872
  23   1.0000      -2.314488       -62.9804
  24   1.0000      -2.314414       -62.9784
  25   1.0000      -2.314254       -62.9741
  26   1.0000      -2.313101       -62.9427
  27   1.0000      -2.312328       -62.9217
  28   1.0000      -2.312188       -62.9178
  29   1.0000      -2.310477       -62.8713
  30   1.0000      -2.309883       -62.8551
  31   1.0000      -2.309015       -62.8315
  32   1.0000      -2.308876       -62.8277
  33   1.0000      -2.308530       -62.8183
  34   1.0000      -2.307767       -62.7975
  35   1.0000      -2.307345       -62.7861
  36   1.0000      -2.307232       -62.7830
  37   1.0000      -2.306980       -62.7761
  38   1.0000      -2.306935       -62.7749
  39   1.0000      -2.306523       -62.7637
  40   1.0000      -2.306287       -62.7572
  41   1.0000      -2.305906       -62.7469
  42   1.0000      -2.305652       -62.7400
  43   1.0000      -2.305310       -62.7307
  44   1.0000      -2.304893       -62.7193
  45   1.0000      -2.303474       -62.6807
  46   1.0000      -2.303283       -62.6755
  47   1.0000      -2.302962       -62.6668
  48   1.0000      -2.302798       -62.6623
  49   1.0000      -2.302566       -62.6560
  50   1.0000      -2.302326       -62.6495
  51   1.0000      -2.301898       -62.6378
  52   1.0000      -2.301517       -62.6275
  53   1.0000      -2.301452       -62.6257
  54   1.0000      -2.301071       -62.6153
  55   1.0000      -2.300624       -62.6032
  56   1.0000      -2.300383       -62.5966
  57   1.0000      -2.300236       -62.5926
  58   1.0000      -2.299901       -62.5835
  59   1.0000      -2.299671       -62.5772
  60   1.0000      -2.299430       -62.5707
  61   1.0000      -2.299220       -62.5650
  62   1.0000      -2.298657       -62.5496
  63   1.0000      -2.298124       -62.5351
  64   1.0000      -2.298049       -62.5331
  65   1.0000      -2.298021       -62.5323
  66   1.0000      -2.297226       -62.5107
  67   1.0000      -2.292887       -62.3926
  68   1.0000      -2.254953       -61.3604
  69   1.0000      -0.441361       -12.0100
  70   1.0000      -0.401346       -10.9212
  71   1.0000      -0.399863       -10.8808
  72   1.0000      -0.399082       -10.8596
  73   1.0000      -0.390988       -10.6393
  74   1.0000      -0.390620       -10.6293
  75   1.0000      -0.381324       -10.3763
  76   1.0000      -0.380914       -10.3652
  77   1.0000      -0.377372       -10.2688
  78   1.0000      -0.375020       -10.2048
  79   1.0000      -0.374504       -10.1908
  80   1.0000      -0.370252       -10.0751
  81   1.0000      -0.366049        -9.9607
  82   1.0000      -0.363025        -9.8784
  83   1.0000      -0.362337        -9.8597
  84   1.0000      -0.360408        -9.8072
  85   1.0000      -0.359956        -9.7949
  86   1.0000      -0.357693        -9.7333
  87   1.0000      -0.355550        -9.6750
  88   1.0000      -0.353794        -9.6272
  89   1.0000      -0.352022        -9.5790
  90   1.0000      -0.351200        -9.5566
  91   1.0000      -0.345349        -9.3974
  92   1.0000      -0.343453        -9.3458
  93   1.0000      -0.343308        -9.3419
  94   1.0000      -0.340640        -9.2693
  95   1.0000      -0.339269        -9.2320
  96   1.0000      -0.335185        -9.1208
  97   1.0000      -0.334088        -9.0910
  98   1.0000      -0.333135        -9.0651
  99   1.0000      -0.332967        -9.0605
 100   1.0000      -0.329886        -8.9767
 101   1.0000      -0.328075        -8.9274
 102   1.0000      -0.326766        -8.8918
 103   1.0000      -0.323227        -8.7954
 104   1.0000      -0.320146        -8.7116
 105   1.0000      -0.318043        -8.6544
 106   1.0000      -0.317356        -8.6357
 107   1.0000      -0.314308        -8.5527
 108   1.0000      -0.307212        -8.3597
 109   1.0000      -0.306399        -8.3375
 110   1.0000      -0.302662        -8.2358
 111   1.0000      -0.301525        -8.2049
 112   1.0000      -0.298157        -8.1133
 113   1.0000      -0.297545        -8.0966
 114   1.0000      -0.294981        -8.0268
 115   1.0000      -0.292822        -7.9681
 116   1.0000      -0.292013        -7.9461
 117   1.0000      -0.289619        -7.8809
 118   1.0000      -0.287795        -7.8313
 119   1.0000      -0.287469        -7.8224
 120   1.0000      -0.286354        -7.7921
 121   1.0000      -0.285471        -7.7681
 122   1.0000      -0.281923        -7.6715
 123   1.0000      -0.281639        -7.6638
 124   1.0000      -0.280591        -7.6353
 125   1.0000      -0.279745        -7.6123
 126   1.0000      -0.277591        -7.5536
 127   1.0000      -0.276121        -7.5136
 128   1.0000      -0.276035        -7.5113
 129   1.0000      -0.274515        -7.4699
 130   1.0000      -0.273150        -7.4328
 131   1.0000      -0.272645        -7.4191
 132   1.0000      -0.272304        -7.4098
 133   1.0000      -0.269200        -7.3253
 134   1.0000      -0.269015        -7.3203
 135   1.0000      -0.268479        -7.3057
 136   1.0000      -0.265851        -7.2342
 137   1.0000      -0.265238        -7.2175
 138   1.0000      -0.264301        -7.1920
 139   1.0000      -0.263509        -7.1704
 140   1.0000      -0.261313        -7.1107
 141   1.0000      -0.261102        -7.1050
 142   1.0000      -0.257064        -6.9951
 143   1.0000      -0.256004        -6.9662
 144   1.0000      -0.254209        -6.9174
 145   1.0000      -0.253954        -6.9104
 146   1.0000      -0.253307        -6.8928
 147   1.0000      -0.252781        -6.8785
 148   1.0000      -0.250805        -6.8247
 149   1.0000      -0.250229        -6.8091
 150   1.0000      -0.249749        -6.7960
 151   1.0000      -0.247633        -6.7384
 152   1.0000      -0.234339        -6.3767
 153   1.0000      -0.228008        -6.2044
 154   1.0000      -0.215734        -5.8704
 155   1.0000      -0.202344        -5.5061
 156   1.0000      -0.199828        -5.4376
 157   0.0000      -0.181825        -4.9477
 158   0.0000      -0.153390        -4.1740
 159   0.0000      -0.135434        -3.6854
 160   0.0000      -0.129661        -3.5283
 161   0.0000      -0.122087        -3.3222

                 SPIN DOWN ORBITALS
  NO   OCC          E(Eh)            E(eV)
   0   1.0000    -255.637678     -6956.2549
   1   1.0000     -29.855771      -812.4168
   2   1.0000     -25.707863      -699.5465
   3   1.0000     -25.706541      -699.5105
   4   1.0000     -25.699674      -699.3237
   5   1.0000      -4.126246      -112.2809
   6   1.0000      -4.124514      -112.2337
   7   1.0000      -4.124432      -112.2315
   8   1.0000      -4.124203      -112.2253
   9   1.0000      -4.123976      -112.2191
  10   1.0000      -4.123559      -112.2078
  11   1.0000      -4.119114      -112.0868
  12   1.0000      -4.118512      -112.0704
  13   1.0000      -4.118294      -112.0645
  14   1.0000      -4.116359      -112.0118
  15   1.0000      -4.116266      -112.0093
  16   1.0000      -4.115299      -111.9830
  17   1.0000      -4.115176      -111.9796
  18   1.0000      -4.115112      -111.9779
  19   1.0000      -4.115105      -111.9777
  20   1.0000      -3.340122       -90.8893
  21   1.0000      -2.314843       -62.9901
  22   1.0000      -2.314433       -62.9789
  23   1.0000      -2.314271       -62.9745
  24   1.0000      -2.314198       -62.9725
  25   1.0000      -2.313811       -62.9620
  26   1.0000      -2.312459       -62.9252
  27   1.0000      -2.311590       -62.9016
  28   1.0000      -2.311521       -62.8997
  29   1.0000      -2.309756       -62.8516
  30   1.0000      -2.309329       -62.8400
  31   1.0000      -2.308400       -62.8148
  32   1.0000      -2.308180       -62.8088
  33   1.0000      -2.307694       -62.7955
  34   1.0000      -2.307544       -62.7915
  35   1.0000      -2.307174       -62.7814
  36   1.0000      -2.306981       -62.7762
  37   1.0000      -2.306826       -62.7719
  38   1.0000      -2.306662       -62.7675
  39   1.0000      -2.306029       -62.7502
  40   1.0000      -2.305987       -62.7491
  41   1.0000      -2.305710       -62.7416
  42   1.0000      -2.305458       -62.7347
  43   1.0000      -2.305438       -62.7341
  44   1.0000      -2.305108       -62.7252
  45   1.0000      -2.303497       -62.6813
  46   1.0000      -2.303277       -62.6753
  47   1.0000      -2.303119       -62.6710
  48   1.0000      -2.303082       -62.6701
  49   1.0000      -2.302334       -62.6497
  50   1.0000      -2.302060       -62.6422
  51   1.0000      -2.301731       -62.6333
  52   1.0000      -2.301502       -62.6271
  53   1.0000      -2.300981       -62.6129
  54   1.0000      -2.300719       -62.6058
  55   1.0000      -2.300676       -62.6046
  56   1.0000      -2.300602       -62.6026
  57   1.0000      -2.300389       -62.5968
  58   1.0000      -2.300364       -62.5961
  59   1.0000      -2.300111       -62.5892
  60   1.0000      -2.300030       -62.5870
  61   1.0000      -2.299970       -62.5854
  62   1.0000      -2.298851       -62.5549
  63   1.0000      -2.298207       -62.5374
  64   1.0000      -2.297750       -62.5250
  65   1.0000      -2.297706       -62.5237
  66   1.0000      -2.114326       -57.5337
  67   1.0000      -2.112911       -57.4952
  68   1.0000      -2.098110       -57.0925
  69   1.0000      -0.438664       -11.9367
  70   1.0000      -0.401130       -10.9153
  71   1.0000      -0.398915       -10.8550
  72   1.0000      -0.398495       -10.8436
  73   1.0000      -0.384886       -10.4733
  74   1.0000      -0.382631       -10.4119
  75   1.0000      -0.378335       -10.2950
  76   1.0000      -0.375454       -10.2166
  77   1.0000      -0.374661       -10.1950
  78   1.0000      -0.369858       -10.0643
  79   1.0000      -0.369633       -10.0582
  80   1.0000      -0.367651       -10.0043
  81   1.0000      -0.363456        -9.8901
  82   1.0000      -0.362667        -9.8687
  83   1.0000      -0.361357        -9.8330
  84   1.0000      -0.359159        -9.7732
  85   1.0000      -0.358754        -9.7622
  86   1.0000      -0.356388        -9.6978
  87   1.0000      -0.355098        -9.6627
  88   1.0000      -0.353524        -9.6199
  89   1.0000      -0.351454        -9.5635
  90   1.0000      -0.349216        -9.5027
  91   1.0000      -0.345113        -9.3910
  92   1.0000      -0.343562        -9.3488
  93   1.0000      -0.342059        -9.3079
  94   1.0000      -0.340150        -9.2560
  95   1.0000      -0.337257        -9.1772
  96   1.0000      -0.334038        -9.0896
  97   1.0000      -0.333185        -9.0664
  98   1.0000      -0.331409        -9.0181
  99   1.0000      -0.330392        -8.9904
 100   1.0000      -0.322858        -8.7854
 101   1.0000      -0.322788        -8.7835
 102   1.0000      -0.319709        -8.6997
 103   1.0000      -0.316620        -8.6157
 104   1.0000      -0.315566        -8.5870
 105   1.0000      -0.310189        -8.4407
 106   1.0000      -0.308406        -8.3922
 107   1.0000      -0.305157        -8.3037
 108   1.0000      -0.303109        -8.2480
 109   1.0000      -0.302919        -8.2428
 110   1.0000      -0.300795        -8.1850
 111   1.0000      -0.299275        -8.1437
 112   1.0000      -0.294723        -8.0198
 113   1.0000      -0.293062        -7.9746
 114   1.0000      -0.292900        -7.9702
 115   1.0000      -0.292256        -7.9527
 116   1.0000      -0.288928        -7.8621
 117   1.0000      -0.288179        -7.8417
 118   1.0000      -0.285252        -7.7621
 119   1.0000      -0.284987        -7.7549
 120   1.0000      -0.284274        -7.7355
 121   1.0000      -0.282673        -7.6919
 122   1.0000      -0.280777        -7.6403
 123   1.0000      -0.279694        -7.6109
 124   1.0000      -0.279279        -7.5996
 125   1.0000      -0.278811        -7.5868
 126   1.0000      -0.276319        -7.5190
 127   1.0000      -0.275006        -7.4833
 128   1.0000      -0.274870        -7.4796
 129   1.0000      -0.272018        -7.4020
 130   1.0000      -0.271864        -7.3978
 131   1.0000      -0.269207        -7.3255
 132   1.0000      -0.269044        -7.3211
 133   1.0000      -0.268333        -7.3017
 134   1.0000      -0.266579        -7.2540
 135   1.0000      -0.264608        -7.2003
 136   1.0000      -0.262295        -7.1374
 137   1.0000      -0.261574        -7.1178
 138   1.0000      -0.258105        -7.0234
 139   1.0000      -0.255917        -6.9639
 140   1.0000      -0.254302        -6.9199
 141   1.0000      -0.253580        -6.9003
 142   1.0000      -0.252753        -6.8778
 143   1.0000      -0.251784        -6.8514
 144   1.0000      -0.251338        -6.8393
 145   1.0000      -0.250438        -6.8148
 146   1.0000      -0.248441        -6.7604
 147   1.0000      -0.234792        -6.3890
 148   1.0000      -0.232747        -6.3334
 149   1.0000      -0.221213        -6.0195
 150   1.0000      -0.211205        -5.7472
 151   1.0000      -0.209243        -5.6938
 152   1.0000      -0.199879        -5.4390
 153   1.0000      -0.179578        -4.8866
 154   0.0000      -0.160990        -4.3808
 155   0.0000      -0.155520        -4.2319
 156   0.0000      -0.145209        -3.9513
 157   0.0000      -0.139381        -3.7927
 158   0.0000      -0.134617        -3.6631

MULLIKEN ATOMIC CHARGES AND SPIN POPULATIONS
--------------------------------------------
   0 Au:    0.459111    0.015441
   1 Au:    0.277203    0.031748
   2 Au:    0.320642   -0.074825
   3 Au:   -0.174138    0.008128
   4 Au:    0.200342   -0.046212
   5 Au:   -0.065224   -0.007899
   6 Au:    0.201642   -0.046324
   7 Au:    0.320646   -0.076621
   8 Au:   -0.175133    0.008694
   9 Au:    0.277597    0.030349
  10 Au:    0.010049    0.045033
  11 Au:    0.368832   -0.017490
  12 Au:    0.010546    0.044866
  13 Au:   -0.518907   -0.129565
  14 Au:    0.460022    0.016484
  15 Fe:   -1.973230    3.198193
Sum of atomic charges         :   -0.0000000

LOEWDIN ATOMIC CHARGES AND SPIN POPULATIONS
-------------------------------------------
   0 Au:    0.103139   -0.017175
   1 Au:    0.063967   -0.005895
   2 Au:    0.074137   -0.075343
   3 Au:   -0.041600    0.022106
   4 Au:    0.013055   -0.066634
   5 Au:    0.009358   -0.001086
   6 Au:    0.013501   -0.066652
   7 Au:    0.074215   -0.076372
   8 Au:   -0.041361    0.022449
   9 Au:    0.063776   -0.006897
  10 Au:    0.000073    0.037006
  11 Au:    0.075313   -0.020380
  12 Au:    0.000245    0.036905
  13 Au:   -0.079157   -0.076773
  14 Au:    0.103481   -0.016644
  15 Fe:   -0.432142    3.311384

  Mayer bond orders larger than 0.100000
B(  0-Au,  3-Au) :   0.2526 B(  0-Au,  4-Au) :   0.1912 B(  0-Au, 12-Au) :   0.2739
B(  0-Au, 13-Au) :   0.3876 B(  1-Au,  2-Au) :   0.1767 B(  1-Au,  3-Au) :   0.2136
B(  1-Au, 11-Au) :   0.2294 B(  1-Au, 12-Au) :   0.1644 B(  1-Au, 15-Fe) :   0.3924
B(  2-Au,  3-Au) :   0.2822 B(  2-Au,  5-Au) :   0.1852 B(  2-Au,  7-Au) :   0.2364
B(  2-Au, 15-Fe) :   0.3511 B(  3-Au,  4-Au) :   0.2931 B(  3-Au,  5-Au) :   0.1166
B(  3-Au, 12-Au) :   0.1062 B(  3-Au, 15-Fe) :   0.4487 B(  4-Au,  5-Au) :   0.2310
B(  4-Au,  6-Au) :   0.3255 B(  4-Au, 13-Au) :   0.2630 B(  5-Au,  6-Au) :   0.2308
B(  5-Au,  7-Au) :   0.1844 B(  5-Au,  8-Au) :   0.1177 B(  5-Au, 15-Fe) :   0.5566
B(  6-Au,  8-Au) :   0.2917 B(  6-Au, 13-Au) :   0.2630 B(  6-Au, 14-Au) :   0.1916
B(  7-Au,  8-Au) :   0.2831 B(  7-Au,  9-Au) :   0.1771 B(  7-Au, 15-Fe) :   0.3501
B(  8-Au,  9-Au) :   0.2134 B(  8-Au, 10-Au) :   0.1063 B(  8-Au, 14-Au) :   0.2532
B(  8-Au, 15-Fe) :   0.4504 B(  9-Au, 10-Au) :   0.1656 B(  9-Au, 11-Au) :   0.2298
B(  9-Au, 15-Fe) :   0.3900 B( 10-Au, 11-Au) :   0.2018 B( 10-Au, 12-Au) :   0.1353
B( 10-Au, 13-Au) :   0.2442 B( 10-Au, 14-Au) :   0.2734 B( 10-Au, 15-Fe) :   0.5081
B( 11-Au, 12-Au) :   0.2028 B( 11-Au, 15-Fe) :   0.3405 B( 12-Au, 13-Au) :   0.2444
B( 12-Au, 15-Fe) :   0.5079 B( 13-Au, 14-Au) :   0.3869 B( 13-Au, 15-Fe) :   0.2185

FINAL SINGLE POINT ENERGY     -3301.425800898144

DIPOLE MOMENT
-------------
                                X             Y             Z
Electronic contribution:     22.59672      16.44546       2.33315
Nuclear contribution   :    -22.61812     -16.38915      -2.43387
                        -----------------------------------------
Total Dipole Moment    :     -0.02140       0.05632      -0.10072
                        -----------------------------------------
Magnitude (a.u.)       :      0.11737
Magnitude (Debye)      :      0.29832

Rotational constants in cm-1:     0.000973     0.000956     0.000847
Rotational constants in MHz :    29.160644    28.663220    25.391746

                             ****ORCA TERMINATED NORMALLY****
TOTAL RUN TIME: 0 days 0 hours 10 minutes 59 seconds 292 msec
