                         Program Version 5.0.3 -  RELEASE  -
|  1> %pal nprocs 1 end
|  2>
|  3> !PBE def2-TZVP OPT UNO
|  4> !SLOWCONV KDIIS
|  5>
|  6> %geom maxiter 300 end
|  7>
|  8> *xyzfile 0 6 0.xyz                           ****END OF INPUT****
 Total Charge           Charge          ....    0
 Multiplicity           Mult            ....    6
 Number of Electrons    NEL             ....  215
FINAL SINGLE POINT ENERGY     -2509.028787748754
FINAL SINGLE POINT ENERGY     -2509.030193775083
FINAL SINGLE POINT ENERGY     -2509.030834634826
FINAL SINGLE POINT ENERGY     -2509.031401509572
FINAL SINGLE POINT ENERGY     -2509.031566427173
FINAL SINGLE POINT ENERGY     -2509.031584358433
FINAL SINGLE POINT ENERGY     -2509.031612446136
FINAL SINGLE POINT ENERGY     -2509.031633516338
FINAL SINGLE POINT ENERGY     -2509.031654062131
FINAL SINGLE POINT ENERGY     -2509.031667510601
FINAL SINGLE POINT ENERGY     -2509.031678619568
FINAL SINGLE POINT ENERGY     -2509.031683894496
FINAL SINGLE POINT ENERGY     -2509.031686443497
                    ***********************HURRAY********************

CARTESIAN COORDINATES (ANGSTROEM)
---------------------------------
  Au     8.540415    7.027828    6.612175
  Au    10.232287    7.231159    8.783996
  Au     4.932279    7.367892    9.159027
  Au     7.583595    7.424770    9.443698
  Au     8.807187    4.895024    8.721297
  Au     5.224996    3.909529    6.112766
  Au     4.025880    5.528157    4.258677
  Au     6.477461    6.462413    5.112889
  Au     4.001826    6.434493    6.840730
  Au     7.000768    3.098103    7.930429
  Mn     6.441947    5.702552    7.715984

 Multiplicity           Mult            ....    6
 Number of Electrons    NEL             ....  215
 Basis Dimension        Dim             ....  445

ORBITAL ENERGIES
----------------
                 SPIN UP ORBITALS
  NO   OCC          E(Eh)            E(eV)
   0   1.0000    -234.200225     -6372.9121
   1   1.0000     -26.897746      -731.9249
   2   1.0000     -23.047038      -627.1418
   3   1.0000     -23.045769      -627.1072
   4   1.0000     -23.045444      -627.0984
   5   1.0000      -4.026457      -109.5655
   6   1.0000      -4.026443      -109.5651
   7   1.0000      -4.026384      -109.5635
   8   1.0000      -4.026368      -109.5630
   9   1.0000      -4.022613      -109.4609
  10   1.0000      -4.022547      -109.4591
  11   1.0000      -4.021383      -109.4274
  12   1.0000      -4.021382      -109.4274
  13   1.0000      -4.018484      -109.3485
  14   1.0000      -4.018146      -109.3393
  15   1.0000      -3.107130       -84.5493
  16   1.0000      -2.245920       -61.1146
  17   1.0000      -2.245319       -61.0982
  18   1.0000      -2.245226       -61.0957
  19   1.0000      -2.244610       -61.0789
  20   1.0000      -2.242170       -61.0125
  21   1.0000      -2.242059       -61.0095
  22   1.0000      -2.240609       -60.9701
  23   1.0000      -2.240303       -60.9617
  24   1.0000      -2.240214       -60.9593
  25   1.0000      -2.239290       -60.9342
  26   1.0000      -2.239139       -60.9301
  27   1.0000      -2.238580       -60.9149
  28   1.0000      -2.237169       -60.8765
  29   1.0000      -2.237062       -60.8735
  30   1.0000      -2.236650       -60.8623
  31   1.0000      -2.234170       -60.7949
  32   1.0000      -2.233276       -60.7705
  33   1.0000      -2.233175       -60.7678
  34   1.0000      -2.232647       -60.7534
  35   1.0000      -2.232592       -60.7519
  36   1.0000      -2.232453       -60.7481
  37   1.0000      -2.232161       -60.7402
  38   1.0000      -2.231676       -60.7270
  39   1.0000      -2.231459       -60.7211
  40   1.0000      -2.231433       -60.7204
  41   1.0000      -2.230720       -60.7010
  42   1.0000      -2.227789       -60.6212
  43   1.0000      -2.227708       -60.6190
  44   1.0000      -2.224306       -60.5265
  45   1.0000      -2.223705       -60.5101
  46   1.0000      -2.012153       -54.7535
  47   1.0000      -2.008647       -54.6581
  48   1.0000      -2.007892       -54.6375
  49   1.0000      -0.408768       -11.1231
  50   1.0000      -0.385935       -10.5018
  51   1.0000      -0.375152       -10.2084
  52   1.0000      -0.367831       -10.0092
  53   1.0000      -0.364516        -9.9190
  54   1.0000      -0.363293        -9.8857
  55   1.0000      -0.361280        -9.8309
  56   1.0000      -0.357313        -9.7230
  57   1.0000      -0.338610        -9.2140
  58   1.0000      -0.335680        -9.1343
  59   1.0000      -0.335207        -9.1215
  60   1.0000      -0.332992        -9.0612
  61   1.0000      -0.332341        -9.0435
  62   1.0000      -0.328613        -8.9420
  63   1.0000      -0.324713        -8.8359
  64   1.0000      -0.323667        -8.8074
  65   1.0000      -0.321399        -8.7457
  66   1.0000      -0.320812        -8.7297
  67   1.0000      -0.317838        -8.6488
  68   1.0000      -0.309873        -8.4321
  69   1.0000      -0.305971        -8.3259
  70   1.0000      -0.304135        -8.2759
  71   1.0000      -0.297588        -8.0978
  72   1.0000      -0.295341        -8.0366
  73   1.0000      -0.292838        -7.9685
  74   1.0000      -0.290524        -7.9056
  75   1.0000      -0.289276        -7.8716
  76   1.0000      -0.287630        -7.8268
  77   1.0000      -0.286678        -7.8009
  78   1.0000      -0.282511        -7.6875
  79   1.0000      -0.282227        -7.6798
  80   1.0000      -0.279765        -7.6128
  81   1.0000      -0.277975        -7.5641
  82   1.0000      -0.275514        -7.4971
  83   1.0000      -0.275124        -7.4865
  84   1.0000      -0.274849        -7.4790
  85   1.0000      -0.271590        -7.3903
  86   1.0000      -0.270242        -7.3537
  87   1.0000      -0.269104        -7.3227
  88   1.0000      -0.266597        -7.2545
  89   1.0000      -0.266577        -7.2539
  90   1.0000      -0.262846        -7.1524
  91   1.0000      -0.260893        -7.0992
  92   1.0000      -0.259903        -7.0723
  93   1.0000      -0.256937        -6.9916
  94   1.0000      -0.255815        -6.9611
  95   1.0000      -0.255244        -6.9455
  96   1.0000      -0.254853        -6.9349
  97   1.0000      -0.253095        -6.8871
  98   1.0000      -0.250579        -6.8186
  99   1.0000      -0.249242        -6.7822
 100   1.0000      -0.242906        -6.6098
 101   1.0000      -0.242442        -6.5972
 102   1.0000      -0.241183        -6.5629
 103   1.0000      -0.239981        -6.5302
 104   1.0000      -0.235470        -6.4075
 105   1.0000      -0.234303        -6.3757
 106   1.0000      -0.232243        -6.3197
 107   1.0000      -0.230201        -6.2641
 108   1.0000      -0.210316        -5.7230
 109   1.0000      -0.181408        -4.9364
 110   0.0000      -0.175068        -4.7638
 111   0.0000      -0.140876        -3.8334
 112   0.0000      -0.131050        -3.5661
 113   0.0000      -0.125583        -3.4173
 114   0.0000      -0.098460        -2.6792

                 SPIN DOWN ORBITALS
  NO   OCC          E(Eh)            E(eV)
   0   1.0000    -234.199440     -6372.8907
   1   1.0000     -26.831296      -730.1167
   2   1.0000     -22.996100      -625.7557
   3   1.0000     -22.995860      -625.7492
   4   1.0000     -22.994803      -625.7204
   5   1.0000      -4.025134      -109.5295
   6   1.0000      -4.025121      -109.5291
   7   1.0000      -4.025061      -109.5275
   8   1.0000      -4.025047      -109.5271
   9   1.0000      -4.020886      -109.4139
  10   1.0000      -4.020877      -109.4136
  11   1.0000      -4.020864      -109.4133
  12   1.0000      -4.020792      -109.4113
  13   1.0000      -4.017147      -109.3121
  14   1.0000      -4.016812      -109.3030
  15   1.0000      -2.943869       -80.1067
  16   1.0000      -2.244578       -61.0781
  17   1.0000      -2.243953       -61.0611
  18   1.0000      -2.243747       -61.0555
  19   1.0000      -2.243019       -61.0356
  20   1.0000      -2.240290       -60.9614
  21   1.0000      -2.240141       -60.9573
  22   1.0000      -2.238938       -60.9246
  23   1.0000      -2.238426       -60.9107
  24   1.0000      -2.238406       -60.9101
  25   1.0000      -2.237552       -60.8869
  26   1.0000      -2.236908       -60.8694
  27   1.0000      -2.236470       -60.8574
  28   1.0000      -2.235971       -60.8439
  29   1.0000      -2.235370       -60.8275
  30   1.0000      -2.235079       -60.8196
  31   1.0000      -2.232836       -60.7586
  32   1.0000      -2.232152       -60.7400
  33   1.0000      -2.232023       -60.7364
  34   1.0000      -2.231707       -60.7278
  35   1.0000      -2.231639       -60.7260
  36   1.0000      -2.231413       -60.7198
  37   1.0000      -2.231249       -60.7154
  38   1.0000      -2.231220       -60.7146
  39   1.0000      -2.230538       -60.6960
  40   1.0000      -2.230014       -60.6818
  41   1.0000      -2.229340       -60.6634
  42   1.0000      -2.226682       -60.5911
  43   1.0000      -2.226602       -60.5889
  44   1.0000      -2.223624       -60.5079
  45   1.0000      -2.223021       -60.4915
  46   1.0000      -1.850966       -50.3673
  47   1.0000      -1.850591       -50.3571
  48   1.0000      -1.846241       -50.2388
  49   1.0000      -0.402791       -10.9605
  50   1.0000      -0.384305       -10.4575
  51   1.0000      -0.366876        -9.9832
  52   1.0000      -0.364303        -9.9132
  53   1.0000      -0.361780        -9.8445
  54   1.0000      -0.355520        -9.6742
  55   1.0000      -0.352893        -9.6027
  56   1.0000      -0.352077        -9.5805
  57   1.0000      -0.332842        -9.0571
  58   1.0000      -0.331820        -9.0293
  59   1.0000      -0.330080        -8.9819
  60   1.0000      -0.329689        -8.9713
  61   1.0000      -0.325394        -8.8544
  62   1.0000      -0.319660        -8.6984
  63   1.0000      -0.318555        -8.6683
  64   1.0000      -0.312764        -8.5107
  65   1.0000      -0.312655        -8.5078
  66   1.0000      -0.312379        -8.5003
  67   1.0000      -0.309117        -8.4115
  68   1.0000      -0.308395        -8.3918
  69   1.0000      -0.303070        -8.2470
  70   1.0000      -0.296430        -8.0663
  71   1.0000      -0.295158        -8.0317
  72   1.0000      -0.294460        -8.0127
  73   1.0000      -0.290605        -7.9078
  74   1.0000      -0.288323        -7.8457
  75   1.0000      -0.288317        -7.8455
  76   1.0000      -0.284343        -7.7374
  77   1.0000      -0.282265        -7.6808
  78   1.0000      -0.279859        -7.6154
  79   1.0000      -0.278901        -7.5893
  80   1.0000      -0.277003        -7.5376
  81   1.0000      -0.275469        -7.4959
  82   1.0000      -0.272368        -7.4115
  83   1.0000      -0.271464        -7.3869
  84   1.0000      -0.268853        -7.3159
  85   1.0000      -0.268654        -7.3104
  86   1.0000      -0.267489        -7.2787
  87   1.0000      -0.267232        -7.2718
  88   1.0000      -0.265184        -7.2160
  89   1.0000      -0.263025        -7.1573
  90   1.0000      -0.260901        -7.0995
  91   1.0000      -0.259608        -7.0643
  92   1.0000      -0.257190        -6.9985
  93   1.0000      -0.255359        -6.9487
  94   1.0000      -0.253881        -6.9084
  95   1.0000      -0.249531        -6.7901
  96   1.0000      -0.249324        -6.7845
  97   1.0000      -0.249270        -6.7830
  98   1.0000      -0.243589        -6.6284
  99   1.0000      -0.242168        -6.5897
 100   1.0000      -0.236362        -6.4317
 101   1.0000      -0.236143        -6.4258
 102   1.0000      -0.232106        -6.3159
 103   1.0000      -0.217931        -5.9302
 104   1.0000      -0.192337        -5.2338
 105   0.0000      -0.181396        -4.9360
 106   0.0000      -0.144491        -3.9318
 107   0.0000      -0.140335        -3.8187
 108   0.0000      -0.136648        -3.7184
 109   0.0000      -0.128795        -3.5047

MULLIKEN ATOMIC CHARGES AND SPIN POPULATIONS
--------------------------------------------
   0 Au:   -0.015313    0.102529
   1 Au:    0.391153    0.206610
   2 Au:    0.217034    0.065385
   3 Au:    0.029327   -0.017083
   4 Au:    0.030488   -0.014358
   5 Au:    0.032172   -0.015281
   6 Au:    0.390858    0.208614
   7 Au:   -0.019439    0.101759
   8 Au:    0.030524   -0.016589
   9 Au:    0.215711    0.065906
  10 Mn:   -1.302515    4.312509
Sum of atomic charges         :   -0.0000000

LOEWDIN ATOMIC CHARGES AND SPIN POPULATIONS
-------------------------------------------
   0 Au:   -0.006773    0.100326
   1 Au:    0.083729    0.145608
   2 Au:    0.118122    0.065764
   3 Au:   -0.019178    0.039747
   4 Au:   -0.019354    0.041216
   5 Au:   -0.019246    0.040525
   6 Au:    0.083421    0.147160
   7 Au:   -0.006495    0.100858
   8 Au:   -0.019085    0.040031
   9 Au:    0.117996    0.067008
  10 Mn:   -0.313137    4.211756

  Mayer bond orders larger than 0.100000
B(  0-Au,  1-Au) :   0.3403 B(  0-Au,  3-Au) :   0.1512 B(  0-Au,  4-Au) :   0.1523
B(  0-Au,  7-Au) :   0.6314 B(  0-Au, 10-Mn) :   0.5251 B(  1-Au,  3-Au) :   0.3337
B(  1-Au,  4-Au) :   0.3333 B(  2-Au,  3-Au) :   0.3982 B(  2-Au,  8-Au) :   0.3974
B(  2-Au, 10-Mn) :   0.5507 B(  3-Au,  4-Au) :   0.2340 B(  3-Au, 10-Mn) :   0.5303
B(  4-Au,  9-Au) :   0.3978 B(  4-Au, 10-Mn) :   0.5290 B(  5-Au,  6-Au) :   0.3323
B(  5-Au,  7-Au) :   0.1515 B(  5-Au,  8-Au) :   0.2349 B(  5-Au,  9-Au) :   0.3970
B(  5-Au, 10-Mn) :   0.5275 B(  6-Au,  7-Au) :   0.3420 B(  6-Au,  8-Au) :   0.3329
B(  7-Au,  8-Au) :   0.1502 B(  7-Au, 10-Mn) :   0.5301 B(  8-Au, 10-Mn) :   0.5294
B(  9-Au, 10-Mn) :   0.5510

FINAL SINGLE POINT ENERGY     -2509.031687388193

DIPOLE MOMENT
-------------
                                X             Y             Z
Electronic contribution:      8.64588       8.45423     -15.02610
Nuclear contribution   :     -8.71847      -8.52515      15.15415
                        -----------------------------------------
Total Dipole Moment    :     -0.07259      -0.07093       0.12805
                        -----------------------------------------
Magnitude (a.u.)       :      0.16339
Magnitude (Debye)      :      0.41531

Rotational constants in cm-1:     0.002381     0.001214     0.001135
Rotational constants in MHz :    71.382518    36.403831    34.039746

                             ****ORCA TERMINATED NORMALLY****
TOTAL RUN TIME: 0 days 1 hours 23 minutes 34 seconds 882 msec
