                         Program Version 5.0.3 -  RELEASE  -
|  1> %pal nprocs 1 end
|  2>
|  3> !PBE def2-TZVP OPT UNO
|  4> !SLOWCONV
|  5>
|  6> *xyzfile 0 6 9.xyz                           ****END OF INPUT****
 Total Charge           Charge          ....    0
 Multiplicity           Mult            ....    6
 Number of Electrons    NEL             ....  311
FINAL SINGLE POINT ENERGY     -3300.915868932754
FINAL SINGLE POINT ENERGY     -3300.918460150482
FINAL SINGLE POINT ENERGY     -3300.918799920627
FINAL SINGLE POINT ENERGY     -3300.919343442642
FINAL SINGLE POINT ENERGY     -3300.919940902145
FINAL SINGLE POINT ENERGY     -3300.920377851970
FINAL SINGLE POINT ENERGY     -3300.920804707846
FINAL SINGLE POINT ENERGY     -3300.921104011764
FINAL SINGLE POINT ENERGY     -3300.921398643497
FINAL SINGLE POINT ENERGY     -3300.921640809134
FINAL SINGLE POINT ENERGY     -3300.924844621480
FINAL SINGLE POINT ENERGY     -3300.924788568414
FINAL SINGLE POINT ENERGY     -3300.924890277289
FINAL SINGLE POINT ENERGY     -3300.924901427311
FINAL SINGLE POINT ENERGY     -3300.924930727310
FINAL SINGLE POINT ENERGY     -3300.924951776007
FINAL SINGLE POINT ENERGY     -3300.924967481502
FINAL SINGLE POINT ENERGY     -3300.924974748771
FINAL SINGLE POINT ENERGY     -3300.924978271244
                    ***********************HURRAY********************

CARTESIAN COORDINATES (ANGSTROEM)
---------------------------------
  Au     7.095177    9.745947    5.921140
  Au     9.190283   10.133513    7.749891
  Au     8.151556    8.598559   10.020368
  Au     6.623225   10.566575    8.584243
  Au     8.585730    5.880149    9.507652
  Au     9.645971    5.739381    6.717597
  Au     9.485482    8.318396    5.641149
  Au    10.359276    7.760939    8.448707
  Au     4.964293    8.574630    7.543735
  Au     5.840243    6.328496    9.200387
  Au     7.217151    4.668123    7.395808
  Au     4.984118    5.976062    6.526213
  Au     5.229570    8.119396    4.780762
  Au     5.401914    8.776930   10.314416
  Au     7.437785    6.482397    5.106998
  Fe     7.629505    7.606820    7.560571

 Multiplicity           Mult            ....    6
 Number of Electrons    NEL             ....  311
 Basis Dimension        Dim             ....  645

ORBITAL ENERGIES
----------------
                 SPIN UP ORBITALS
  NO   OCC          E(Eh)            E(eV)
   0   1.0000    -254.786895     -6933.1039
   1   1.0000     -29.627678      -806.2101
   2   1.0000     -25.564208      -695.6375
   3   1.0000     -25.562515      -695.5914
   4   1.0000     -25.560245      -695.5296
   5   1.0000      -4.038078      -109.8817
   6   1.0000      -4.036304      -109.8334
   7   1.0000      -4.036112      -109.8282
   8   1.0000      -4.034787      -109.7921
   9   1.0000      -4.034446      -109.7829
  10   1.0000      -4.030516      -109.6759
  11   1.0000      -4.030414      -109.6731
  12   1.0000      -4.030149      -109.6659
  13   1.0000      -4.030017      -109.6623
  14   1.0000      -4.029937      -109.6602
  15   1.0000      -4.029890      -109.6589
  16   1.0000      -4.025300      -109.5340
  17   1.0000      -4.025239      -109.5323
  18   1.0000      -4.022456      -109.4566
  19   1.0000      -4.022280      -109.4518
  20   1.0000      -3.408493       -92.7498
  21   1.0000      -2.253299       -61.3154
  22   1.0000      -2.251851       -61.2760
  23   1.0000      -2.251624       -61.2698
  24   1.0000      -2.250864       -61.2491
  25   1.0000      -2.250807       -61.2476
  26   1.0000      -2.250469       -61.2384
  27   1.0000      -2.249859       -61.2218
  28   1.0000      -2.248925       -61.1964
  29   1.0000      -2.248434       -61.1830
  30   1.0000      -2.247586       -61.1599
  31   1.0000      -2.247285       -61.1517
  32   1.0000      -2.247178       -61.1488
  33   1.0000      -2.246811       -61.1388
  34   1.0000      -2.246645       -61.1343
  35   1.0000      -2.246211       -61.1225
  36   1.0000      -2.245745       -61.1098
  37   1.0000      -2.245632       -61.1068
  38   1.0000      -2.245068       -61.0914
  39   1.0000      -2.244416       -61.0737
  40   1.0000      -2.244178       -61.0672
  41   1.0000      -2.244110       -61.0653
  42   1.0000      -2.243951       -61.0610
  43   1.0000      -2.243392       -61.0458
  44   1.0000      -2.243139       -61.0389
  45   1.0000      -2.242726       -61.0277
  46   1.0000      -2.241828       -61.0032
  47   1.0000      -2.241767       -61.0016
  48   1.0000      -2.241356       -60.9904
  49   1.0000      -2.241053       -60.9822
  50   1.0000      -2.240702       -60.9726
  51   1.0000      -2.240531       -60.9680
  52   1.0000      -2.240315       -60.9621
  53   1.0000      -2.240087       -60.9559
  54   1.0000      -2.240047       -60.9548
  55   1.0000      -2.239672       -60.9446
  56   1.0000      -2.237503       -60.8856
  57   1.0000      -2.237258       -60.8789
  58   1.0000      -2.236662       -60.8627
  59   1.0000      -2.236634       -60.8619
  60   1.0000      -2.235943       -60.8431
  61   1.0000      -2.235724       -60.8372
  62   1.0000      -2.235116       -60.8206
  63   1.0000      -2.234992       -60.8172
  64   1.0000      -2.234282       -60.7979
  65   1.0000      -2.234106       -60.7931
  66   1.0000      -2.225531       -60.5598
  67   1.0000      -2.222003       -60.4638
  68   1.0000      -2.217338       -60.3368
  69   1.0000      -0.444281       -12.0895
  70   1.0000      -0.396933       -10.8011
  71   1.0000      -0.395562       -10.7638
  72   1.0000      -0.390082       -10.6147
  73   1.0000      -0.385530       -10.4908
  74   1.0000      -0.385103       -10.4792
  75   1.0000      -0.379542       -10.3279
  76   1.0000      -0.378672       -10.3042
  77   1.0000      -0.374419       -10.1885
  78   1.0000      -0.370875       -10.0920
  79   1.0000      -0.364225        -9.9111
  80   1.0000      -0.361870        -9.8470
  81   1.0000      -0.359365        -9.7788
  82   1.0000      -0.356810        -9.7093
  83   1.0000      -0.356152        -9.6914
  84   1.0000      -0.355806        -9.6820
  85   1.0000      -0.354699        -9.6518
  86   1.0000      -0.353351        -9.6152
  87   1.0000      -0.351828        -9.5737
  88   1.0000      -0.349750        -9.5172
  89   1.0000      -0.349332        -9.5058
  90   1.0000      -0.346423        -9.4267
  91   1.0000      -0.344635        -9.3780
  92   1.0000      -0.343833        -9.3562
  93   1.0000      -0.337671        -9.1885
  94   1.0000      -0.337459        -9.1827
  95   1.0000      -0.334438        -9.1005
  96   1.0000      -0.332113        -9.0373
  97   1.0000      -0.331562        -9.0223
  98   1.0000      -0.329608        -8.9691
  99   1.0000      -0.326947        -8.8967
 100   1.0000      -0.323126        -8.7927
 101   1.0000      -0.322342        -8.7714
 102   1.0000      -0.319837        -8.7032
 103   1.0000      -0.318089        -8.6556
 104   1.0000      -0.317331        -8.6350
 105   1.0000      -0.315169        -8.5762
 106   1.0000      -0.312821        -8.5123
 107   1.0000      -0.307089        -8.3563
 108   1.0000      -0.302798        -8.2396
 109   1.0000      -0.300904        -8.1880
 110   1.0000      -0.299441        -8.1482
 111   1.0000      -0.296241        -8.0611
 112   1.0000      -0.293415        -7.9842
 113   1.0000      -0.292438        -7.9576
 114   1.0000      -0.288562        -7.8522
 115   1.0000      -0.287796        -7.8313
 116   1.0000      -0.284176        -7.7328
 117   1.0000      -0.281955        -7.6724
 118   1.0000      -0.281155        -7.6506
 119   1.0000      -0.280262        -7.6263
 120   1.0000      -0.278794        -7.5864
 121   1.0000      -0.276693        -7.5292
 122   1.0000      -0.276417        -7.5217
 123   1.0000      -0.274907        -7.4806
 124   1.0000      -0.273573        -7.4443
 125   1.0000      -0.272894        -7.4258
 126   1.0000      -0.272258        -7.4085
 127   1.0000      -0.270989        -7.3740
 128   1.0000      -0.270843        -7.3700
 129   1.0000      -0.268520        -7.3068
 130   1.0000      -0.267423        -7.2769
 131   1.0000      -0.266010        -7.2385
 132   1.0000      -0.264867        -7.2074
 133   1.0000      -0.264342        -7.1931
 134   1.0000      -0.263624        -7.1736
 135   1.0000      -0.262435        -7.1412
 136   1.0000      -0.261672        -7.1205
 137   1.0000      -0.258393        -7.0312
 138   1.0000      -0.257483        -7.0065
 139   1.0000      -0.257105        -6.9962
 140   1.0000      -0.255809        -6.9609
 141   1.0000      -0.254558        -6.9269
 142   1.0000      -0.254443        -6.9237
 143   1.0000      -0.254154        -6.9159
 144   1.0000      -0.249702        -6.7947
 145   1.0000      -0.248958        -6.7745
 146   1.0000      -0.248383        -6.7588
 147   1.0000      -0.247471        -6.7340
 148   1.0000      -0.246330        -6.7030
 149   1.0000      -0.243185        -6.6174
 150   1.0000      -0.242578        -6.6009
 151   1.0000      -0.239244        -6.5102
 152   1.0000      -0.235148        -6.3987
 153   1.0000      -0.220870        -6.0102
 154   1.0000      -0.214035        -5.8242
 155   1.0000      -0.206246        -5.6122
 156   1.0000      -0.201033        -5.4704
 157   1.0000      -0.196164        -5.3379
 158   0.0000      -0.158720        -4.3190
 159   0.0000      -0.130756        -3.5581
 160   0.0000      -0.130266        -3.5447
 161   0.0000      -0.126371        -3.4387
 162   0.0000      -0.120237        -3.2718

                 SPIN DOWN ORBITALS
  NO   OCC          E(Eh)            E(eV)
   0   1.0000    -254.786149     -6933.0836
   1   1.0000     -29.563804      -804.4720
   2   1.0000     -25.515089      -694.3009
   3   1.0000     -25.514139      -694.2750
   4   1.0000     -25.513026      -694.2447
   5   1.0000      -4.036947      -109.8509
   6   1.0000      -4.035378      -109.8082
   7   1.0000      -4.035183      -109.8029
   8   1.0000      -4.033681      -109.7620
   9   1.0000      -4.033355      -109.7532
  10   1.0000      -4.029957      -109.6607
  11   1.0000      -4.029856      -109.6580
  12   1.0000      -4.029508      -109.6485
  13   1.0000      -4.029366      -109.6446
  14   1.0000      -4.029280      -109.6423
  15   1.0000      -4.029221      -109.6407
  16   1.0000      -4.024909      -109.5233
  17   1.0000      -4.024853      -109.5218
  18   1.0000      -4.022024      -109.4448
  19   1.0000      -4.021849      -109.4401
  20   1.0000      -3.264825       -88.8404
  21   1.0000      -2.252014       -61.2804
  22   1.0000      -2.250774       -61.2467
  23   1.0000      -2.250558       -61.2408
  24   1.0000      -2.249518       -61.2125
  25   1.0000      -2.249401       -61.2093
  26   1.0000      -2.249093       -61.2009
  27   1.0000      -2.248808       -61.1932
  28   1.0000      -2.247733       -61.1639
  29   1.0000      -2.247334       -61.1531
  30   1.0000      -2.246540       -61.1315
  31   1.0000      -2.246304       -61.1250
  32   1.0000      -2.246125       -61.1202
  33   1.0000      -2.245999       -61.1167
  34   1.0000      -2.245814       -61.1117
  35   1.0000      -2.245532       -61.1040
  36   1.0000      -2.244934       -61.0878
  37   1.0000      -2.244783       -61.0837
  38   1.0000      -2.244181       -61.0673
  39   1.0000      -2.243533       -61.0496
  40   1.0000      -2.243417       -61.0465
  41   1.0000      -2.243367       -61.0451
  42   1.0000      -2.243262       -61.0423
  43   1.0000      -2.242708       -61.0272
  44   1.0000      -2.242194       -61.0132
  45   1.0000      -2.241882       -61.0047
  46   1.0000      -2.241372       -60.9908
  47   1.0000      -2.241066       -60.9825
  48   1.0000      -2.240816       -60.9757
  49   1.0000      -2.240443       -60.9656
  50   1.0000      -2.240048       -60.9548
  51   1.0000      -2.239998       -60.9535
  52   1.0000      -2.239872       -60.9500
  53   1.0000      -2.239702       -60.9454
  54   1.0000      -2.239511       -60.9402
  55   1.0000      -2.239112       -60.9293
  56   1.0000      -2.237051       -60.8732
  57   1.0000      -2.236790       -60.8662
  58   1.0000      -2.236181       -60.8496
  59   1.0000      -2.236163       -60.8491
  60   1.0000      -2.235508       -60.8313
  61   1.0000      -2.235297       -60.8255
  62   1.0000      -2.234660       -60.8082
  63   1.0000      -2.234527       -60.8046
  64   1.0000      -2.233787       -60.7844
  65   1.0000      -2.233613       -60.7797
  66   1.0000      -2.082439       -56.6660
  67   1.0000      -2.081174       -56.6316
  68   1.0000      -2.079423       -56.5840
  69   1.0000      -0.439118       -11.9490
  70   1.0000      -0.394994       -10.7483
  71   1.0000      -0.393722       -10.7137
  72   1.0000      -0.388075       -10.5601
  73   1.0000      -0.375376       -10.2145
  74   1.0000      -0.372568       -10.1381
  75   1.0000      -0.369528       -10.0554
  76   1.0000      -0.368729       -10.0336
  77   1.0000      -0.367780       -10.0078
  78   1.0000      -0.364996        -9.9320
  79   1.0000      -0.360457        -9.8085
  80   1.0000      -0.358732        -9.7616
  81   1.0000      -0.358240        -9.7482
  82   1.0000      -0.354651        -9.6505
  83   1.0000      -0.354138        -9.6366
  84   1.0000      -0.353097        -9.6082
  85   1.0000      -0.351911        -9.5760
  86   1.0000      -0.350529        -9.5384
  87   1.0000      -0.350289        -9.5318
  88   1.0000      -0.347996        -9.4695
  89   1.0000      -0.347226        -9.4485
  90   1.0000      -0.345088        -9.3903
  91   1.0000      -0.342383        -9.3167
  92   1.0000      -0.341378        -9.2894
  93   1.0000      -0.334816        -9.1108
  94   1.0000      -0.332738        -9.0543
  95   1.0000      -0.330788        -9.0012
  96   1.0000      -0.328786        -8.9467
  97   1.0000      -0.326585        -8.8868
  98   1.0000      -0.323808        -8.8113
  99   1.0000      -0.323411        -8.8005
 100   1.0000      -0.320308        -8.7160
 101   1.0000      -0.319767        -8.7013
 102   1.0000      -0.314243        -8.5510
 103   1.0000      -0.313198        -8.5226
 104   1.0000      -0.309164        -8.4128
 105   1.0000      -0.303527        -8.2594
 106   1.0000      -0.301294        -8.1986
 107   1.0000      -0.298887        -8.1331
 108   1.0000      -0.298374        -8.1192
 109   1.0000      -0.291884        -7.9426
 110   1.0000      -0.289624        -7.8811
 111   1.0000      -0.288599        -7.8532
 112   1.0000      -0.286839        -7.8053
 113   1.0000      -0.284988        -7.7549
 114   1.0000      -0.282883        -7.6976
 115   1.0000      -0.280030        -7.6200
 116   1.0000      -0.279746        -7.6123
 117   1.0000      -0.278173        -7.5695
 118   1.0000      -0.277744        -7.5578
 119   1.0000      -0.276898        -7.5348
 120   1.0000      -0.274366        -7.4659
 121   1.0000      -0.273603        -7.4451
 122   1.0000      -0.273214        -7.4345
 123   1.0000      -0.271423        -7.3858
 124   1.0000      -0.270806        -7.3690
 125   1.0000      -0.270376        -7.3573
 126   1.0000      -0.267299        -7.2736
 127   1.0000      -0.265127        -7.2145
 128   1.0000      -0.264249        -7.1906
 129   1.0000      -0.263967        -7.1829
 130   1.0000      -0.262876        -7.1532
 131   1.0000      -0.261853        -7.1254
 132   1.0000      -0.257433        -7.0051
 133   1.0000      -0.257295        -7.0014
 134   1.0000      -0.255920        -6.9639
 135   1.0000      -0.254898        -6.9361
 136   1.0000      -0.253689        -6.9032
 137   1.0000      -0.253216        -6.8904
 138   1.0000      -0.252831        -6.8799
 139   1.0000      -0.249090        -6.7781
 140   1.0000      -0.247637        -6.7385
 141   1.0000      -0.246710        -6.7133
 142   1.0000      -0.246022        -6.6946
 143   1.0000      -0.245386        -6.6773
 144   1.0000      -0.242447        -6.5973
 145   1.0000      -0.242284        -6.5929
 146   1.0000      -0.238671        -6.4946
 147   1.0000      -0.234521        -6.3816
 148   1.0000      -0.223646        -6.0857
 149   1.0000      -0.219482        -5.9724
 150   1.0000      -0.213839        -5.8189
 151   1.0000      -0.211581        -5.7574
 152   1.0000      -0.207228        -5.6390
 153   0.0000      -0.177691        -4.8352
 154   0.0000      -0.177465        -4.8291
 155   0.0000      -0.173323        -4.7164
 156   0.0000      -0.172195        -4.6857
 157   0.0000      -0.172066        -4.6822

MULLIKEN ATOMIC CHARGES AND SPIN POPULATIONS
--------------------------------------------
   0 Au:    0.015455    0.131209
   1 Au:    0.234978    0.081108
   2 Au:    0.008460    0.162416
   3 Au:    0.180428    0.105060
   4 Au:    0.264324    0.101118
   5 Au:    0.279120    0.117975
   6 Au:    0.264130    0.101944
   7 Au:    0.279440    0.119565
   8 Au:   -0.248414    0.172775
   9 Au:    0.012007    0.131049
  10 Au:    0.236432    0.081071
  11 Au:    0.182096    0.105600
  12 Au:    0.422672    0.084413
  13 Au:    0.425975    0.084159
  14 Au:    0.016037    0.161759
  15 Fe:   -2.573141    3.258776
Sum of atomic charges         :    0.0000000

LOEWDIN ATOMIC CHARGES AND SPIN POPULATIONS
-------------------------------------------
   0 Au:    0.010430    0.107021
   1 Au:    0.038916    0.084141
   2 Au:    0.010503    0.119363
   3 Au:    0.019113    0.099743
   4 Au:    0.061582    0.089162
   5 Au:    0.045336    0.098015
   6 Au:    0.062287    0.089387
   7 Au:    0.045081    0.098748
   8 Au:   -0.037716    0.128200
   9 Au:    0.010292    0.106892
  10 Au:    0.039108    0.083838
  11 Au:    0.019897    0.099932
  12 Au:    0.084690    0.101634
  13 Au:    0.086270    0.101594
  14 Au:    0.011180    0.118754
  15 Fe:   -0.506969    3.473578

  Mayer bond orders larger than 0.100000
B(  0-Au,  1-Au) :   0.1940 B(  0-Au,  3-Au) :   0.2073 B(  0-Au,  6-Au) :   0.1809
B(  0-Au,  8-Au) :   0.1752 B(  0-Au, 12-Au) :   0.3092 B(  0-Au, 14-Au) :   0.1127
B(  0-Au, 15-Fe) :   0.5211 B(  1-Au,  2-Au) :   0.1644 B(  1-Au,  3-Au) :   0.2831
B(  1-Au,  6-Au) :   0.1982 B(  1-Au,  7-Au) :   0.2660 B(  1-Au, 15-Fe) :   0.3745
B(  2-Au,  3-Au) :   0.2170 B(  2-Au,  4-Au) :   0.1919 B(  2-Au,  7-Au) :   0.1925
B(  2-Au,  9-Au) :   0.1147 B(  2-Au, 13-Au) :   0.2968 B(  2-Au, 15-Fe) :   0.5031
B(  3-Au,  8-Au) :   0.2949 B(  3-Au, 13-Au) :   0.2176 B(  3-Au, 15-Fe) :   0.2708
B(  4-Au,  5-Au) :   0.1129 B(  4-Au,  7-Au) :   0.1890 B(  4-Au,  9-Au) :   0.1817
B(  4-Au, 10-Au) :   0.2002 B(  4-Au, 15-Fe) :   0.4885 B(  5-Au,  6-Au) :   0.1872
B(  5-Au,  7-Au) :   0.2651 B(  5-Au, 10-Au) :   0.2636 B(  5-Au, 14-Au) :   0.1935
B(  5-Au, 15-Fe) :   0.4063 B(  6-Au,  7-Au) :   0.1105 B(  6-Au, 14-Au) :   0.1879
B(  6-Au, 15-Fe) :   0.4947 B(  7-Au, 15-Fe) :   0.4066 B(  8-Au,  9-Au) :   0.1753
B(  8-Au, 11-Au) :   0.2946 B(  8-Au, 12-Au) :   0.2880 B(  8-Au, 13-Au) :   0.2884
B(  8-Au, 15-Fe) :   0.4305 B(  9-Au, 10-Au) :   0.1932 B(  9-Au, 11-Au) :   0.2037
B(  9-Au, 13-Au) :   0.3096 B(  9-Au, 15-Fe) :   0.5246 B( 10-Au, 11-Au) :   0.2842
B( 10-Au, 14-Au) :   0.1645 B( 10-Au, 15-Fe) :   0.3750 B( 11-Au, 12-Au) :   0.2162
B( 11-Au, 14-Au) :   0.2132 B( 11-Au, 15-Fe) :   0.2763 B( 12-Au, 14-Au) :   0.2984
B( 12-Au, 15-Fe) :   0.1362 B( 13-Au, 15-Fe) :   0.1310 B( 14-Au, 15-Fe) :   0.5010

FINAL SINGLE POINT ENERGY     -3300.924979976168

DIPOLE MOMENT
-------------
                                X             Y             Z
Electronic contribution:    -10.87564       4.02731       0.13507
Nuclear contribution   :     10.78274      -3.99418      -0.12870
                        -----------------------------------------
Total Dipole Moment    :     -0.09290       0.03313       0.00637
                        -----------------------------------------
Magnitude (a.u.)       :      0.09884
Magnitude (Debye)      :      0.25123

Rotational constants in cm-1:     0.000984     0.000976     0.000895
Rotational constants in MHz :    29.487405    29.246006    26.845289

                             ****ORCA TERMINATED NORMALLY****
TOTAL RUN TIME: 0 days 5 hours 44 minutes 33 seconds 599 msec
