                         Program Version 5.0.3 -  RELEASE  -
|  1> !RI-B2PLYP def2-TZVP def2-TZVP/C
|  2> !RIJCOSX VERYSLOWCONV
|  3>
|  4> %scf
|  5>   AutoTRAHIter 200
|  6>   maxiter 400
|  7> end
|  8>
|  9>
| 10> %pal nprocs 6 end
| 11>
| 12> *xyzfile 0 5 pbe.xyz
| 13>
| 14> $new_job
| 15>
| 16> !RI-B2PLYP def2-TZVP def2-TZVP/C
| 17> !RIJCOSX VERYSLOWCONV
| 18>
| 19> %scf
| 20>   AutoTRAHIter 200
| 21>   maxiter 400
| 22> end
| 23>
| 24>
| 25> %pal nprocs 6 end
| 26>
| 27> *xyzfile 0 3 pbe.xyz
| 28>
| 29>
| 30>
| 31>
| 32>
| 33>                          ****END OF INPUT****
 Total Charge           Charge          ....    0
 Multiplicity           Mult            ....    5
 Number of Electrons    NEL             ....  330
MP2 TOTAL ENERGY:    -3432.991332267 Eh
FINAL SINGLE POINT ENERGY     -3432.991332267089

CARTESIAN COORDINATES (ANGSTROEM)
---------------------------------
  Au     8.040673    9.971240    8.208794
  Au     7.242951    8.646474   10.504296
  Au     9.162803    7.494259    8.888051
  Au     7.429312    7.216054    5.206956
  Au     9.657737    8.567738    6.294551
  Au     9.404847    5.844431    6.632395
  Au     7.461598   10.006177    5.478126
  Au     5.389475   10.074499    7.364336
  Au     7.056835    4.537442    6.008357
  Au     4.888490    6.024413    5.203902
  Au     4.994631    5.249759    7.882118
  Au     5.737052    6.297467   10.336036
  Au     7.665285    5.161147    8.720121
  Au     3.855524    7.697778    7.203423
  Au     4.587888    8.747556    9.655998
  Au     5.093107    8.747112    4.860716
  Fe     6.504390    7.622455    8.002474

 Multiplicity           Mult            ....    3
 Number of Electrons    NEL             ....  330
 Basis Dimension        Dim             ....  685

ORBITAL ENERGIES
----------------
                 SPIN UP ORBITALS
  NO   OCC          E(Eh)            E(eV)
   0   1.0000    -258.356135     -7030.2278
   1   1.0000     -30.915421      -841.2514
   2   1.0000     -26.634744      -724.7682
   3   1.0000     -26.603331      -723.9134
   4   1.0000     -26.602947      -723.9030
   5   1.0000      -4.411227      -120.0356
   6   1.0000      -4.410367      -120.0122
   7   1.0000      -4.410241      -120.0088
   8   1.0000      -4.409357      -119.9847
   9   1.0000      -4.408643      -119.9653
  10   1.0000      -4.408437      -119.9597
  11   1.0000      -4.407513      -119.9345
  12   1.0000      -4.407063      -119.9223
  13   1.0000      -4.406735      -119.9134
  14   1.0000      -4.406547      -119.9082
  15   1.0000      -4.401550      -119.7723
  16   1.0000      -4.398060      -119.6773
  17   1.0000      -4.397719      -119.6680
  18   1.0000      -4.393840      -119.5625
  19   1.0000      -4.393387      -119.5501
  20   1.0000      -4.392674      -119.5307
  21   1.0000      -3.929010      -106.9138
  22   1.0000      -2.681656       -72.9716
  23   1.0000      -2.616145       -71.1889
  24   1.0000      -2.615766       -71.1786
  25   1.0000      -2.531642       -68.8895
  26   1.0000      -2.530895       -68.8692
  27   1.0000      -2.530749       -68.8652
  28   1.0000      -2.529890       -68.8418
  29   1.0000      -2.529528       -68.8320
  30   1.0000      -2.528966       -68.8167
  31   1.0000      -2.528664       -68.8085
  32   1.0000      -2.528265       -68.7976
  33   1.0000      -2.527928       -68.7884
  34   1.0000      -2.527784       -68.7845
  35   1.0000      -2.527389       -68.7737
  36   1.0000      -2.527208       -68.7688
  37   1.0000      -2.526879       -68.7599
  38   1.0000      -2.526456       -68.7484
  39   1.0000      -2.526265       -68.7432
  40   1.0000      -2.526079       -68.7381
  41   1.0000      -2.525518       -68.7228
  42   1.0000      -2.525187       -68.7138
  43   1.0000      -2.524587       -68.6975
  44   1.0000      -2.524307       -68.6899
  45   1.0000      -2.524117       -68.6847
  46   1.0000      -2.523417       -68.6657
  47   1.0000      -2.523281       -68.6620
  48   1.0000      -2.522849       -68.6502
  49   1.0000      -2.522673       -68.6454
  50   1.0000      -2.521956       -68.6259
  51   1.0000      -2.521575       -68.6156
  52   1.0000      -2.521287       -68.6077
  53   1.0000      -2.520899       -68.5971
  54   1.0000      -2.520704       -68.5918
  55   1.0000      -2.520262       -68.5798
  56   1.0000      -2.518136       -68.5220
  57   1.0000      -2.517933       -68.5164
  58   1.0000      -2.517346       -68.5005
  59   1.0000      -2.516513       -68.4778
  60   1.0000      -2.514832       -68.4321
  61   1.0000      -2.514518       -68.4235
  62   1.0000      -2.513906       -68.4069
  63   1.0000      -2.513651       -68.3999
  64   1.0000      -2.511076       -68.3299
  65   1.0000      -2.510298       -68.3087
  66   1.0000      -2.510124       -68.3039
  67   1.0000      -2.509735       -68.2934
  68   1.0000      -2.509587       -68.2893
  69   1.0000      -2.509284       -68.2811
  70   1.0000      -2.508911       -68.2709
  71   1.0000      -2.508425       -68.2577
  72   1.0000      -2.507982       -68.2457
  73   1.0000      -0.575424       -15.6581
  74   1.0000      -0.568810       -15.4781
  75   1.0000      -0.566136       -15.4053
  76   1.0000      -0.544491       -14.8164
  77   1.0000      -0.513246       -13.9661
  78   1.0000      -0.512513       -13.9462
  79   1.0000      -0.477946       -13.0056
  80   1.0000      -0.474291       -12.9061
  81   1.0000      -0.472048       -12.8451
  82   1.0000      -0.471491       -12.8299
  83   1.0000      -0.470797       -12.8110
  84   1.0000      -0.469523       -12.7764
  85   1.0000      -0.467945       -12.7334
  86   1.0000      -0.467626       -12.7248
  87   1.0000      -0.463802       -12.6207
  88   1.0000      -0.463437       -12.6107
  89   1.0000      -0.462629       -12.5888
  90   1.0000      -0.462150       -12.5758
  91   1.0000      -0.458979       -12.4894
  92   1.0000      -0.458895       -12.4872
  93   1.0000      -0.458299       -12.4709
  94   1.0000      -0.456414       -12.4197
  95   1.0000      -0.455096       -12.3838
  96   1.0000      -0.454527       -12.3683
  97   1.0000      -0.453967       -12.3531
  98   1.0000      -0.451903       -12.2969
  99   1.0000      -0.447657       -12.1814
 100   1.0000      -0.446946       -12.1620
 101   1.0000      -0.446248       -12.1430
 102   1.0000      -0.445400       -12.1200
 103   1.0000      -0.439079       -11.9480
 104   1.0000      -0.436143       -11.8681
 105   1.0000      -0.435271       -11.8443
 106   1.0000      -0.429494       -11.6871
 107   1.0000      -0.426885       -11.6161
 108   1.0000      -0.425734       -11.5848
 109   1.0000      -0.424585       -11.5535
 110   1.0000      -0.424229       -11.5439
 111   1.0000      -0.420530       -11.4432
 112   1.0000      -0.420290       -11.4367
 113   1.0000      -0.417059       -11.3488
 114   1.0000      -0.415876       -11.3166
 115   1.0000      -0.407425       -11.0866
 116   1.0000      -0.406797       -11.0695
 117   1.0000      -0.405379       -11.0309
 118   1.0000      -0.404784       -11.0147
 119   1.0000      -0.401723       -10.9314
 120   1.0000      -0.395790       -10.7700
 121   1.0000      -0.391187       -10.6448
 122   1.0000      -0.390841       -10.6353
 123   1.0000      -0.389142       -10.5891
 124   1.0000      -0.388683       -10.5766
 125   1.0000      -0.388221       -10.5640
 126   1.0000      -0.385797       -10.4981
 127   1.0000      -0.383885       -10.4460
 128   1.0000      -0.377998       -10.2858
 129   1.0000      -0.377551       -10.2737
 130   1.0000      -0.375945       -10.2300
 131   1.0000      -0.373791       -10.1714
 132   1.0000      -0.370345       -10.0776
 133   1.0000      -0.369055       -10.0425
 134   1.0000      -0.368671       -10.0320
 135   1.0000      -0.368391       -10.0244
 136   1.0000      -0.364062        -9.9066
 137   1.0000      -0.363743        -9.8979
 138   1.0000      -0.362772        -9.8715
 139   1.0000      -0.362423        -9.8620
 140   1.0000      -0.356154        -9.6914
 141   1.0000      -0.355788        -9.6815
 142   1.0000      -0.355417        -9.6714
 143   1.0000      -0.355308        -9.6684
 144   1.0000      -0.354620        -9.6497
 145   1.0000      -0.353681        -9.6241
 146   1.0000      -0.352855        -9.6017
 147   1.0000      -0.351460        -9.5637
 148   1.0000      -0.351275        -9.5587
 149   1.0000      -0.347245        -9.4490
 150   1.0000      -0.347194        -9.4476
 151   1.0000      -0.340157        -9.2561
 152   1.0000      -0.339165        -9.2291
 153   1.0000      -0.337579        -9.1860
 154   1.0000      -0.337090        -9.1727
 155   1.0000      -0.331864        -9.0305
 156   1.0000      -0.327184        -8.9031
 157   1.0000      -0.325872        -8.8674
 158   1.0000      -0.325067        -8.8455
 159   1.0000      -0.323333        -8.7983
 160   1.0000      -0.320749        -8.7280
 161   1.0000      -0.317352        -8.6356
 162   1.0000      -0.248692        -6.7672
 163   1.0000      -0.246164        -6.6985
 164   1.0000      -0.228853        -6.2274
 165   1.0000      -0.227450        -6.1892
 166   0.0000      -0.153934        -4.1888
 167   0.0000      -0.098315        -2.6753
 168   0.0000      -0.072077        -1.9613
 169   0.0000      -0.070660        -1.9228
 170   0.0000      -0.065439        -1.7807

                 SPIN DOWN ORBITALS
  NO   OCC          E(Eh)            E(eV)
   0   1.0000    -258.354646     -7030.1873
   1   1.0000     -30.822033      -838.7102
   2   1.0000     -26.533795      -722.0213
   3   1.0000     -26.525533      -721.7964
   4   1.0000     -26.525195      -721.7872
   5   1.0000      -4.412068      -120.0585
   6   1.0000      -4.411601      -120.0458
   7   1.0000      -4.410942      -120.0278
   8   1.0000      -4.409360      -119.9848
   9   1.0000      -4.409109      -119.9780
  10   1.0000      -4.408689      -119.9665
  11   1.0000      -4.407877      -119.9444
  12   1.0000      -4.407203      -119.9261
  13   1.0000      -4.407133      -119.9242
  14   1.0000      -4.406690      -119.9121
  15   1.0000      -4.403337      -119.8209
  16   1.0000      -4.398905      -119.7003
  17   1.0000      -4.398408      -119.6868
  18   1.0000      -4.394861      -119.5903
  19   1.0000      -4.394851      -119.5900
  20   1.0000      -4.393798      -119.5613
  21   1.0000      -3.682589      -100.2083
  22   1.0000      -2.531941       -68.8976
  23   1.0000      -2.531112       -68.8751
  24   1.0000      -2.531019       -68.8725
  25   1.0000      -2.530558       -68.8600
  26   1.0000      -2.530155       -68.8490
  27   1.0000      -2.529802       -68.8394
  28   1.0000      -2.528992       -68.8174
  29   1.0000      -2.528436       -68.8023
  30   1.0000      -2.527836       -68.7859
  31   1.0000      -2.527753       -68.7837
  32   1.0000      -2.527684       -68.7818
  33   1.0000      -2.527306       -68.7715
  34   1.0000      -2.527008       -68.7634
  35   1.0000      -2.526940       -68.7615
  36   1.0000      -2.526489       -68.7493
  37   1.0000      -2.526392       -68.7466
  38   1.0000      -2.525707       -68.7280
  39   1.0000      -2.525508       -68.7226
  40   1.0000      -2.524873       -68.7053
  41   1.0000      -2.524742       -68.7017
  42   1.0000      -2.524075       -68.6836
  43   1.0000      -2.523738       -68.6744
  44   1.0000      -2.523275       -68.6618
  45   1.0000      -2.523052       -68.6557
  46   1.0000      -2.522646       -68.6447
  47   1.0000      -2.521935       -68.6253
  48   1.0000      -2.521594       -68.6160
  49   1.0000      -2.521339       -68.6091
  50   1.0000      -2.521146       -68.6039
  51   1.0000      -2.520939       -68.5982
  52   1.0000      -2.520496       -68.5862
  53   1.0000      -2.520171       -68.5773
  54   1.0000      -2.519551       -68.5605
  55   1.0000      -2.518490       -68.5316
  56   1.0000      -2.517833       -68.5137
  57   1.0000      -2.515789       -68.4581
  58   1.0000      -2.515310       -68.4451
  59   1.0000      -2.515035       -68.4376
  60   1.0000      -2.514578       -68.4251
  61   1.0000      -2.512112       -68.3581
  62   1.0000      -2.511811       -68.3498
  63   1.0000      -2.511471       -68.3406
  64   1.0000      -2.511011       -68.3281
  65   1.0000      -2.510697       -68.3195
  66   1.0000      -2.510416       -68.3119
  67   1.0000      -2.510284       -68.3083
  68   1.0000      -2.510068       -68.3024
  69   1.0000      -2.509340       -68.2826
  70   1.0000      -2.360856       -64.2422
  71   1.0000      -2.359913       -64.2165
  72   1.0000      -2.345958       -63.8368
  73   1.0000      -0.518177       -14.1003
  74   1.0000      -0.481446       -13.1008
  75   1.0000      -0.479825       -13.0567
  76   1.0000      -0.478354       -13.0167
  77   1.0000      -0.476717       -12.9721
  78   1.0000      -0.475220       -12.9314
  79   1.0000      -0.473282       -12.8786
  80   1.0000      -0.472492       -12.8572
  81   1.0000      -0.472065       -12.8455
  82   1.0000      -0.470793       -12.8109
  83   1.0000      -0.468876       -12.7588
  84   1.0000      -0.467727       -12.7275
  85   1.0000      -0.465280       -12.6609
  86   1.0000      -0.464524       -12.6403
  87   1.0000      -0.463382       -12.6093
  88   1.0000      -0.462257       -12.5787
  89   1.0000      -0.461120       -12.5477
  90   1.0000      -0.460267       -12.5245
  91   1.0000      -0.458846       -12.4858
  92   1.0000      -0.458006       -12.4630
  93   1.0000      -0.457338       -12.4448
  94   1.0000      -0.455229       -12.3874
  95   1.0000      -0.454449       -12.3662
  96   1.0000      -0.449664       -12.2360
  97   1.0000      -0.447970       -12.1899
  98   1.0000      -0.446540       -12.1510
  99   1.0000      -0.437482       -11.9045
 100   1.0000      -0.436439       -11.8761
 101   1.0000      -0.433004       -11.7826
 102   1.0000      -0.428653       -11.6642
 103   1.0000      -0.428407       -11.6576
 104   1.0000      -0.425883       -11.5889
 105   1.0000      -0.424972       -11.5641
 106   1.0000      -0.421668       -11.4742
 107   1.0000      -0.421217       -11.4619
 108   1.0000      -0.420524       -11.4430
 109   1.0000      -0.417741       -11.3673
 110   1.0000      -0.409511       -11.1434
 111   1.0000      -0.409108       -11.1324
 112   1.0000      -0.407988       -11.1019
 113   1.0000      -0.407434       -11.0869
 114   1.0000      -0.403848       -10.9893
 115   1.0000      -0.401899       -10.9362
 116   1.0000      -0.400925       -10.9097
 117   1.0000      -0.398662       -10.8481
 118   1.0000      -0.396058       -10.7773
 119   1.0000      -0.395371       -10.7586
 120   1.0000      -0.391113       -10.6427
 121   1.0000      -0.389687       -10.6039
 122   1.0000      -0.387610       -10.5474
 123   1.0000      -0.381454       -10.3799
 124   1.0000      -0.379922       -10.3382
 125   1.0000      -0.379508       -10.3269
 126   1.0000      -0.375582       -10.2201
 127   1.0000      -0.374684       -10.1957
 128   1.0000      -0.373309       -10.1582
 129   1.0000      -0.371913       -10.1203
 130   1.0000      -0.369343       -10.0503
 131   1.0000      -0.368350       -10.0233
 132   1.0000      -0.366134        -9.9630
 133   1.0000      -0.364989        -9.9318
 134   1.0000      -0.364554        -9.9200
 135   1.0000      -0.361776        -9.8444
 136   1.0000      -0.359407        -9.7800
 137   1.0000      -0.357341        -9.7237
 138   1.0000      -0.356377        -9.6975
 139   1.0000      -0.355635        -9.6773
 140   1.0000      -0.355325        -9.6689
 141   1.0000      -0.355159        -9.6644
 142   1.0000      -0.354037        -9.6338
 143   1.0000      -0.353141        -9.6095
 144   1.0000      -0.351050        -9.5526
 145   1.0000      -0.350427        -9.5356
 146   1.0000      -0.349162        -9.5012
 147   1.0000      -0.342511        -9.3202
 148   1.0000      -0.340694        -9.2708
 149   1.0000      -0.339603        -9.2411
 150   1.0000      -0.338414        -9.2087
 151   1.0000      -0.335619        -9.1326
 152   1.0000      -0.332216        -9.0400
 153   1.0000      -0.330363        -8.9896
 154   1.0000      -0.330237        -8.9862
 155   1.0000      -0.328118        -8.9285
 156   1.0000      -0.327879        -8.9220
 157   1.0000      -0.317828        -8.6485
 158   1.0000      -0.255859        -6.9623
 159   1.0000      -0.253203        -6.8900
 160   1.0000      -0.249509        -6.7895
 161   1.0000      -0.239682        -6.5221
 162   1.0000      -0.237060        -6.4507
 163   1.0000      -0.172912        -4.7052
 164   0.0000      -0.081353        -2.2137
 165   0.0000      -0.079304        -2.1580
 166   0.0000      -0.072374        -1.9694
 167   0.0000      -0.068783        -1.8717
 168   0.0000      -0.067837        -1.8459

MULLIKEN ATOMIC CHARGES AND SPIN POPULATIONS
--------------------------------------------
   0 Au:    0.084693    0.039831
   1 Au:    0.234332   -0.136971
   2 Au:    0.119750   -0.110820
   3 Au:   -0.658245   -0.230050
   4 Au:    0.140311   -0.086336
   5 Au:    0.202350   -0.122400
   6 Au:    0.230205   -0.076640
   7 Au:    0.120852   -0.027099
   8 Au:    0.156745   -0.086889
   9 Au:    0.220174   -0.083131
  10 Au:    0.083931    0.038098
  11 Au:    0.227672   -0.132484
  12 Au:    0.107062   -0.067591
  13 Au:    0.130975   -0.069305
  14 Au:    0.260040   -0.178525
  15 Au:    0.130950   -0.124722
  16 Fe:   -1.791798    3.455033
Sum of atomic charges         :   -0.0000000

LOEWDIN ATOMIC CHARGES AND SPIN POPULATIONS
-------------------------------------------
   0 Au:   -0.016015   -0.018162
   1 Au:    0.052003   -0.150344
   2 Au:   -0.000123   -0.091342
   3 Au:   -0.077847   -0.136885
   4 Au:    0.010925   -0.114265
   5 Au:    0.019209   -0.161156
   6 Au:    0.000395   -0.096494
   7 Au:   -0.000385   -0.050884
   8 Au:    0.012890   -0.109213
   9 Au:    0.003463   -0.110884
  10 Au:   -0.016159   -0.019045
  11 Au:    0.050947   -0.140848
  12 Au:   -0.004318   -0.074774
  13 Au:    0.003288   -0.068493
  14 Au:    0.059937   -0.163320
  15 Au:    0.008643   -0.134925
  16 Fe:   -0.106852    3.641034

  Mayer bond orders larger than 0.100000
B(  0-Au,  1-Au) :   0.2133 B(  0-Au,  2-Au) :   0.1671 B(  0-Au,  4-Au) :   0.2005
B(  0-Au,  6-Au) :   0.2286 B(  0-Au,  7-Au) :   0.2175 B(  0-Au, 16-Fe) :   0.3767
B(  1-Au,  2-Au) :   0.2487 B(  1-Au, 11-Au) :   0.2157 B(  1-Au, 14-Au) :   0.2053
B(  1-Au, 16-Fe) :   0.3108 B(  2-Au,  4-Au) :   0.2120 B(  2-Au,  5-Au) :   0.2157
B(  2-Au, 12-Au) :   0.1815 B(  2-Au, 16-Fe) :   0.3438 B(  3-Au,  4-Au) :   0.2690
B(  3-Au,  5-Au) :   0.2879 B(  3-Au,  6-Au) :   0.2543 B(  3-Au,  8-Au) :   0.2541
B(  3-Au,  9-Au) :   0.2607 B(  3-Au, 15-Au) :   0.3350 B(  3-Au, 16-Fe) :   0.4011
B(  4-Au,  5-Au) :   0.2800 B(  4-Au,  6-Au) :   0.2627 B(  4-Au, 16-Fe) :   0.1013
B(  5-Au,  8-Au) :   0.2706 B(  5-Au, 12-Au) :   0.2227 B(  6-Au,  7-Au) :   0.2219
B(  6-Au, 15-Au) :   0.2762 B(  7-Au, 13-Au) :   0.1442 B(  7-Au, 14-Au) :   0.2292
B(  7-Au, 15-Au) :   0.1796 B(  7-Au, 16-Fe) :   0.3866 B(  8-Au,  9-Au) :   0.2607
B(  8-Au, 10-Au) :   0.2034 B(  8-Au, 12-Au) :   0.2271 B(  8-Au, 16-Fe) :   0.1078
B(  9-Au, 10-Au) :   0.2292 B(  9-Au, 13-Au) :   0.2136 B(  9-Au, 15-Au) :   0.2792
B( 10-Au, 11-Au) :   0.2120 B( 10-Au, 12-Au) :   0.1700 B( 10-Au, 13-Au) :   0.2132
B( 10-Au, 16-Fe) :   0.3773 B( 11-Au, 12-Au) :   0.2415 B( 11-Au, 14-Au) :   0.2055
B( 11-Au, 16-Fe) :   0.3288 B( 12-Au, 16-Fe) :   0.3597 B( 13-Au, 14-Au) :   0.2386
B( 13-Au, 15-Au) :   0.1717 B( 13-Au, 16-Fe) :   0.3638 B( 14-Au, 16-Fe) :   0.3068
B( 15-Au, 16-Fe) :   0.1075

MP2 TOTAL ENERGY:    -3432.934570330 Eh
FINAL SINGLE POINT ENERGY     -3432.934570329861

DIPOLE MOMENT
-------------
                                X             Y             Z
Electronic contribution:      8.50200      -3.99677     -22.51688
Nuclear contribution   :     -8.60675       4.00853      22.94369
                        -----------------------------------------
Total Dipole Moment    :     -0.10475       0.01176       0.42681
                        -----------------------------------------
Magnitude (a.u.)       :      0.43963
Magnitude (Debye)      :      1.11746

Rotational constants in cm-1:     0.000855     0.000838     0.000832
Rotational constants in MHz :    25.631559    25.116494    24.930831

                             ****ORCA TERMINATED NORMALLY****
TOTAL RUN TIME: 0 days 0 hours 51 minutes 6 seconds 335 msec
