                         Program Version 5.0.3 -  RELEASE  -
|  1> !PBE def2-TZVP VERYSLOWCONV
|  2>
|  3> %scf
|  4>   AutoTRAHIter 200
|  5>   maxiter 400
|  6> end
|  7>
|  8>
|  9> %pal nprocs 6 end
| 10>
| 11> *xyzfile 0 5 pbe.xyz
| 12>
| 13> $new_job
| 14>
| 15> !PBE def2-TZVP VERYSLOWCONV
| 16>
| 17> %scf
| 18>   AutoTRAHIter 200
| 19>   maxiter 400
| 20> end
| 21>
| 22>
| 23> %pal nprocs 6 end
| 24>
| 25> *xyzfile 0 3 pbe.xyz
| 26>
| 27>
| 28>
| 29>
| 30>
| 31>                          ****END OF INPUT****
 Total Charge           Charge          ....    0
 Multiplicity           Mult            ....    5
 Number of Electrons    NEL             ....  330
FINAL SINGLE POINT ENERGY     -3436.761698188280

CARTESIAN COORDINATES (ANGSTROEM)
---------------------------------
  Au     8.040673    9.971240    8.208794
  Au     7.242951    8.646474   10.504296
  Au     9.162803    7.494259    8.888051
  Au     7.429312    7.216054    5.206956
  Au     9.657737    8.567738    6.294551
  Au     9.404847    5.844431    6.632395
  Au     7.461598   10.006177    5.478126
  Au     5.389475   10.074499    7.364336
  Au     7.056835    4.537442    6.008357
  Au     4.888490    6.024413    5.203902
  Au     4.994631    5.249759    7.882118
  Au     5.737052    6.297467   10.336036
  Au     7.665285    5.161147    8.720121
  Au     3.855524    7.697778    7.203423
  Au     4.587888    8.747556    9.655998
  Au     5.093107    8.747112    4.860716
  Fe     6.504390    7.622455    8.002474

 Multiplicity           Mult            ....    3
 Number of Electrons    NEL             ....  330
 Basis Dimension        Dim             ....  685

ORBITAL ENERGIES
----------------
                 SPIN UP ORBITALS
  NO   OCC          E(Eh)            E(eV)
   0   1.0000    -254.736785     -6931.7403
   1   1.0000     -29.557584      -804.3028
   2   1.0000     -25.501293      -693.9255
   3   1.0000     -25.495038      -693.7553
   4   1.0000     -25.490879      -693.6421
   5   1.0000      -4.041110      -109.9642
   6   1.0000      -4.034573      -109.7863
   7   1.0000      -4.034459      -109.7832
   8   1.0000      -4.034364      -109.7806
   9   1.0000      -4.034173      -109.7754
  10   1.0000      -4.031169      -109.6937
  11   1.0000      -4.031039      -109.6901
  12   1.0000      -4.030440      -109.6738
  13   1.0000      -4.029360      -109.6445
  14   1.0000      -4.029205      -109.6402
  15   1.0000      -4.028606      -109.6239
  16   1.0000      -4.027044      -109.5814
  17   1.0000      -4.026779      -109.5742
  18   1.0000      -4.025459      -109.5383
  19   1.0000      -4.023528      -109.4858
  20   1.0000      -4.023432      -109.4831
  21   1.0000      -3.326381       -90.5154
  22   1.0000      -2.255733       -61.3816
  23   1.0000      -2.254992       -61.3614
  24   1.0000      -2.251533       -61.2673
  25   1.0000      -2.250701       -61.2447
  26   1.0000      -2.250350       -61.2351
  27   1.0000      -2.249788       -61.2198
  28   1.0000      -2.248969       -61.1976
  29   1.0000      -2.248205       -61.1768
  30   1.0000      -2.247971       -61.1704
  31   1.0000      -2.247754       -61.1645
  32   1.0000      -2.247073       -61.1460
  33   1.0000      -2.246877       -61.1406
  34   1.0000      -2.246569       -61.1323
  35   1.0000      -2.246041       -61.1179
  36   1.0000      -2.245796       -61.1112
  37   1.0000      -2.245479       -61.1026
  38   1.0000      -2.245180       -61.0944
  39   1.0000      -2.244857       -61.0857
  40   1.0000      -2.244773       -61.0834
  41   1.0000      -2.244495       -61.0758
  42   1.0000      -2.243747       -61.0555
  43   1.0000      -2.243247       -61.0419
  44   1.0000      -2.242974       -61.0344
  45   1.0000      -2.242814       -61.0301
  46   1.0000      -2.242708       -61.0272
  47   1.0000      -2.242209       -61.0136
  48   1.0000      -2.242090       -61.0104
  49   1.0000      -2.241943       -61.0064
  50   1.0000      -2.241798       -61.0024
  51   1.0000      -2.241222       -60.9868
  52   1.0000      -2.241093       -60.9832
  53   1.0000      -2.240861       -60.9769
  54   1.0000      -2.240150       -60.9576
  55   1.0000      -2.240085       -60.9558
  56   1.0000      -2.239659       -60.9442
  57   1.0000      -2.239620       -60.9432
  58   1.0000      -2.238923       -60.9242
  59   1.0000      -2.238220       -60.9051
  60   1.0000      -2.238159       -60.9034
  61   1.0000      -2.237991       -60.8988
  62   1.0000      -2.237917       -60.8968
  63   1.0000      -2.237339       -60.8811
  64   1.0000      -2.236742       -60.8649
  65   1.0000      -2.236196       -60.8500
  66   1.0000      -2.236104       -60.8475
  67   1.0000      -2.235255       -60.8244
  68   1.0000      -2.233399       -60.7739
  69   1.0000      -2.233285       -60.7708
  70   1.0000      -2.150389       -58.5151
  71   1.0000      -2.143708       -58.3333
  72   1.0000      -2.130133       -57.9639
  73   1.0000      -0.431822       -11.7505
  74   1.0000      -0.395593       -10.7646
  75   1.0000      -0.390434       -10.6243
  76   1.0000      -0.389092       -10.5877
  77   1.0000      -0.374139       -10.1808
  78   1.0000      -0.373090       -10.1523
  79   1.0000      -0.373010       -10.1501
  80   1.0000      -0.370726       -10.0880
  81   1.0000      -0.369761       -10.0617
  82   1.0000      -0.367939       -10.0121
  83   1.0000      -0.364924        -9.9301
  84   1.0000      -0.363120        -9.8810
  85   1.0000      -0.360632        -9.8133
  86   1.0000      -0.359883        -9.7929
  87   1.0000      -0.358422        -9.7532
  88   1.0000      -0.355169        -9.6646
  89   1.0000      -0.354503        -9.6465
  90   1.0000      -0.354158        -9.6371
  91   1.0000      -0.350277        -9.5315
  92   1.0000      -0.349955        -9.5228
  93   1.0000      -0.349669        -9.5150
  94   1.0000      -0.348946        -9.4953
  95   1.0000      -0.347708        -9.4616
  96   1.0000      -0.345094        -9.3905
  97   1.0000      -0.343641        -9.3510
  98   1.0000      -0.341411        -9.2903
  99   1.0000      -0.331076        -9.0090
 100   1.0000      -0.330435        -8.9916
 101   1.0000      -0.329462        -8.9651
 102   1.0000      -0.326752        -8.8914
 103   1.0000      -0.326369        -8.8810
 104   1.0000      -0.321514        -8.7489
 105   1.0000      -0.321364        -8.7448
 106   1.0000      -0.318402        -8.6641
 107   1.0000      -0.317136        -8.6297
 108   1.0000      -0.316636        -8.6161
 109   1.0000      -0.311516        -8.4768
 110   1.0000      -0.309382        -8.4187
 111   1.0000      -0.308315        -8.3897
 112   1.0000      -0.307530        -8.3683
 113   1.0000      -0.307441        -8.3659
 114   1.0000      -0.306746        -8.3470
 115   1.0000      -0.303726        -8.2648
 116   1.0000      -0.302065        -8.2196
 117   1.0000      -0.297553        -8.0968
 118   1.0000      -0.293858        -7.9963
 119   1.0000      -0.293247        -7.9797
 120   1.0000      -0.292322        -7.9545
 121   1.0000      -0.288198        -7.8423
 122   1.0000      -0.286997        -7.8096
 123   1.0000      -0.285686        -7.7739
 124   1.0000      -0.278424        -7.5763
 125   1.0000      -0.277206        -7.5432
 126   1.0000      -0.276316        -7.5189
 127   1.0000      -0.276185        -7.5154
 128   1.0000      -0.275694        -7.5020
 129   1.0000      -0.273732        -7.4486
 130   1.0000      -0.271099        -7.3770
 131   1.0000      -0.270050        -7.3484
 132   1.0000      -0.269768        -7.3408
 133   1.0000      -0.265618        -7.2278
 134   1.0000      -0.264813        -7.2059
 135   1.0000      -0.264377        -7.1941
 136   1.0000      -0.262743        -7.1496
 137   1.0000      -0.262398        -7.1402
 138   1.0000      -0.260168        -7.0795
 139   1.0000      -0.259388        -7.0583
 140   1.0000      -0.257859        -7.0167
 141   1.0000      -0.257101        -6.9961
 142   1.0000      -0.256661        -6.9841
 143   1.0000      -0.256515        -6.9801
 144   1.0000      -0.255717        -6.9584
 145   1.0000      -0.255617        -6.9557
 146   1.0000      -0.253870        -6.9082
 147   1.0000      -0.251082        -6.8323
 148   1.0000      -0.249531        -6.7901
 149   1.0000      -0.248988        -6.7753
 150   1.0000      -0.248645        -6.7660
 151   1.0000      -0.248543        -6.7632
 152   1.0000      -0.246283        -6.7017
 153   1.0000      -0.245633        -6.6840
 154   1.0000      -0.244028        -6.6404
 155   1.0000      -0.243410        -6.6235
 156   1.0000      -0.241955        -6.5839
 157   1.0000      -0.241263        -6.5651
 158   1.0000      -0.237285        -6.4568
 159   1.0000      -0.230445        -6.2707
 160   1.0000      -0.224372        -6.1055
 161   1.0000      -0.222656        -6.0588
 162   1.0000      -0.217386        -5.9154
 163   1.0000      -0.212431        -5.7805
 164   1.0000      -0.206157        -5.6098
 165   1.0000      -0.203465        -5.5366
 166   0.0000      -0.195305        -5.3145
 167   0.0000      -0.158651        -4.3171
 168   0.0000      -0.136000        -3.7007
 169   0.0000      -0.135584        -3.6894
 170   0.0000      -0.129012        -3.5106

                 SPIN DOWN ORBITALS
  NO   OCC          E(Eh)            E(eV)
   0   1.0000    -254.736369     -6931.7290
   1   1.0000     -29.519421      -803.2643
   2   1.0000     -25.474270      -693.1901
   3   1.0000     -25.466798      -692.9868
   4   1.0000     -25.459785      -692.7960
   5   1.0000      -4.041266      -109.9684
   6   1.0000      -4.034390      -109.7813
   7   1.0000      -4.034262      -109.7778
   8   1.0000      -4.034248      -109.7775
   9   1.0000      -4.034065      -109.7725
  10   1.0000      -4.030844      -109.6848
  11   1.0000      -4.030713      -109.6813
  12   1.0000      -4.030650      -109.6796
  13   1.0000      -4.029358      -109.6444
  14   1.0000      -4.029202      -109.6402
  15   1.0000      -4.028396      -109.6182
  16   1.0000      -4.026772      -109.5740
  17   1.0000      -4.026538      -109.5677
  18   1.0000      -4.025602      -109.5422
  19   1.0000      -4.023704      -109.4906
  20   1.0000      -4.023605      -109.4879
  21   1.0000      -3.238129       -88.1140
  22   1.0000      -2.255624       -61.3786
  23   1.0000      -2.255411       -61.3729
  24   1.0000      -2.251722       -61.2725
  25   1.0000      -2.250519       -61.2397
  26   1.0000      -2.250247       -61.2323
  27   1.0000      -2.249701       -61.2175
  28   1.0000      -2.248621       -61.1881
  29   1.0000      -2.248045       -61.1724
  30   1.0000      -2.247749       -61.1644
  31   1.0000      -2.247506       -61.1577
  32   1.0000      -2.246876       -61.1406
  33   1.0000      -2.246645       -61.1343
  34   1.0000      -2.246538       -61.1314
  35   1.0000      -2.245918       -61.1145
  36   1.0000      -2.245604       -61.1060
  37   1.0000      -2.245364       -61.0995
  38   1.0000      -2.245172       -61.0942
  39   1.0000      -2.244714       -61.0818
  40   1.0000      -2.244662       -61.0804
  41   1.0000      -2.244402       -61.0733
  42   1.0000      -2.243690       -61.0539
  43   1.0000      -2.243461       -61.0477
  44   1.0000      -2.242625       -61.0249
  45   1.0000      -2.242453       -61.0202
  46   1.0000      -2.242329       -61.0169
  47   1.0000      -2.242207       -61.0135
  48   1.0000      -2.242032       -61.0088
  49   1.0000      -2.241691       -60.9995
  50   1.0000      -2.241530       -60.9951
  51   1.0000      -2.241228       -60.9869
  52   1.0000      -2.240960       -60.9796
  53   1.0000      -2.240740       -60.9736
  54   1.0000      -2.240113       -60.9566
  55   1.0000      -2.239676       -60.9447
  56   1.0000      -2.239608       -60.9428
  57   1.0000      -2.239419       -60.9377
  58   1.0000      -2.238957       -60.9251
  59   1.0000      -2.238434       -60.9109
  60   1.0000      -2.238254       -60.9060
  61   1.0000      -2.237992       -60.8989
  62   1.0000      -2.237705       -60.8911
  63   1.0000      -2.237110       -60.8749
  64   1.0000      -2.236517       -60.8587
  65   1.0000      -2.236412       -60.8559
  66   1.0000      -2.236319       -60.8533
  67   1.0000      -2.235373       -60.8276
  68   1.0000      -2.233646       -60.7806
  69   1.0000      -2.233527       -60.7773
  70   1.0000      -2.069084       -56.3026
  71   1.0000      -2.057501       -55.9875
  72   1.0000      -2.037497       -55.4431
  73   1.0000      -0.429632       -11.6909
  74   1.0000      -0.395111       -10.7515
  75   1.0000      -0.390315       -10.6210
  76   1.0000      -0.388806       -10.5799
  77   1.0000      -0.373227       -10.1560
  78   1.0000      -0.371694       -10.1143
  79   1.0000      -0.371394       -10.1061
  80   1.0000      -0.369020       -10.0415
  81   1.0000      -0.368416       -10.0251
  82   1.0000      -0.366889        -9.9836
  83   1.0000      -0.364965        -9.9312
  84   1.0000      -0.362650        -9.8682
  85   1.0000      -0.359693        -9.7877
  86   1.0000      -0.359287        -9.7767
  87   1.0000      -0.358539        -9.7563
  88   1.0000      -0.354349        -9.6423
  89   1.0000      -0.354049        -9.6342
  90   1.0000      -0.353649        -9.6233
  91   1.0000      -0.350209        -9.5297
  92   1.0000      -0.348881        -9.4935
  93   1.0000      -0.348598        -9.4858
  94   1.0000      -0.347936        -9.4678
  95   1.0000      -0.347728        -9.4622
  96   1.0000      -0.345154        -9.3921
  97   1.0000      -0.343555        -9.3486
  98   1.0000      -0.341466        -9.2918
  99   1.0000      -0.331039        -9.0080
 100   1.0000      -0.330550        -8.9947
 101   1.0000      -0.329571        -8.9681
 102   1.0000      -0.326943        -8.8966
 103   1.0000      -0.326483        -8.8840
 104   1.0000      -0.321084        -8.7371
 105   1.0000      -0.320812        -8.7297
 106   1.0000      -0.316794        -8.6204
 107   1.0000      -0.316719        -8.6184
 108   1.0000      -0.315242        -8.5782
 109   1.0000      -0.311591        -8.4788
 110   1.0000      -0.308422        -8.3926
 111   1.0000      -0.308210        -8.3868
 112   1.0000      -0.307130        -8.3574
 113   1.0000      -0.306746        -8.3470
 114   1.0000      -0.304092        -8.2748
 115   1.0000      -0.298921        -8.1341
 116   1.0000      -0.297978        -8.1084
 117   1.0000      -0.296850        -8.0777
 118   1.0000      -0.293901        -7.9974
 119   1.0000      -0.292696        -7.9647
 120   1.0000      -0.292313        -7.9542
 121   1.0000      -0.288601        -7.8532
 122   1.0000      -0.284833        -7.7507
 123   1.0000      -0.284396        -7.7388
 124   1.0000      -0.276651        -7.5281
 125   1.0000      -0.275793        -7.5047
 126   1.0000      -0.275416        -7.4945
 127   1.0000      -0.275344        -7.4925
 128   1.0000      -0.274935        -7.4814
 129   1.0000      -0.273788        -7.4502
 130   1.0000      -0.270286        -7.3549
 131   1.0000      -0.269969        -7.3462
 132   1.0000      -0.269511        -7.3338
 133   1.0000      -0.265765        -7.2318
 134   1.0000      -0.264893        -7.2081
 135   1.0000      -0.264301        -7.1920
 136   1.0000      -0.262379        -7.1397
 137   1.0000      -0.262348        -7.1388
 138   1.0000      -0.259994        -7.0748
 139   1.0000      -0.258762        -7.0413
 140   1.0000      -0.257202        -6.9988
 141   1.0000      -0.257042        -6.9945
 142   1.0000      -0.256483        -6.9793
 143   1.0000      -0.256401        -6.9770
 144   1.0000      -0.255050        -6.9403
 145   1.0000      -0.254817        -6.9339
 146   1.0000      -0.253802        -6.9063
 147   1.0000      -0.249479        -6.7887
 148   1.0000      -0.249122        -6.7789
 149   1.0000      -0.248629        -6.7655
 150   1.0000      -0.248257        -6.7554
 151   1.0000      -0.248199        -6.7539
 152   1.0000      -0.245633        -6.6840
 153   1.0000      -0.243368        -6.6224
 154   1.0000      -0.243269        -6.6197
 155   1.0000      -0.241978        -6.5846
 156   1.0000      -0.230385        -6.2691
 157   1.0000      -0.225287        -6.1304
 158   1.0000      -0.224847        -6.1184
 159   1.0000      -0.220046        -5.9877
 160   1.0000      -0.215627        -5.8675
 161   1.0000      -0.214544        -5.8380
 162   1.0000      -0.191182        -5.2023
 163   1.0000      -0.173977        -4.7342
 164   0.0000      -0.156682        -4.2635
 165   0.0000      -0.153936        -4.1888
 166   0.0000      -0.149059        -4.0561
 167   0.0000      -0.146381        -3.9832
 168   0.0000      -0.130848        -3.5606

MULLIKEN ATOMIC CHARGES AND SPIN POPULATIONS
--------------------------------------------
   0 Au:    0.088792    0.037894
   1 Au:    0.274527    0.001519
   2 Au:    0.090623   -0.044898
   3 Au:   -0.680915   -0.076660
   4 Au:    0.188710   -0.026872
   5 Au:    0.272698    0.017182
   6 Au:    0.281810    0.022796
   7 Au:    0.116906   -0.016432
   8 Au:    0.190206   -0.025337
   9 Au:    0.280493    0.022455
  10 Au:    0.089657    0.037961
  11 Au:    0.271936    0.002567
  12 Au:    0.093224   -0.047080
  13 Au:    0.115807   -0.013148
  14 Au:    0.282317   -0.023256
  15 Au:    0.182940   -0.014418
  16 Fe:   -2.139733    2.145726
Sum of atomic charges         :   -0.0000000

LOEWDIN ATOMIC CHARGES AND SPIN POPULATIONS
-------------------------------------------
   0 Au:    0.019125    0.024579
   1 Au:    0.072940   -0.010072
   2 Au:    0.024301   -0.019591
   3 Au:   -0.052652   -0.037107
   4 Au:    0.024193   -0.025895
   5 Au:    0.033318   -0.021177
   6 Au:    0.024268    0.000915
   7 Au:    0.031673   -0.006242
   8 Au:    0.024100   -0.025180
   9 Au:    0.023855    0.001353
  10 Au:    0.019194    0.024665
  11 Au:    0.072656   -0.008821
  12 Au:    0.023900   -0.020578
  13 Au:    0.031670   -0.004269
  14 Au:    0.080738   -0.021222
  15 Au:    0.028360   -0.011963
  16 Fe:   -0.481638    2.160604

  Mayer bond orders larger than 0.100000
B(  0-Au,  1-Au) :   0.2420 B(  0-Au,  2-Au) :   0.2022 B(  0-Au,  4-Au) :   0.2122
B(  0-Au,  6-Au) :   0.2236 B(  0-Au,  7-Au) :   0.2544 B(  0-Au, 16-Fe) :   0.3826
B(  1-Au,  2-Au) :   0.2580 B(  1-Au, 11-Au) :   0.2333 B(  1-Au, 14-Au) :   0.2244
B(  1-Au, 16-Fe) :   0.3813 B(  2-Au,  4-Au) :   0.2305 B(  2-Au,  5-Au) :   0.2237
B(  2-Au, 12-Au) :   0.2387 B(  2-Au, 16-Fe) :   0.4106 B(  3-Au,  4-Au) :   0.3464
B(  3-Au,  5-Au) :   0.3740 B(  3-Au,  6-Au) :   0.3614 B(  3-Au,  8-Au) :   0.3493
B(  3-Au,  9-Au) :   0.3595 B(  3-Au, 15-Au) :   0.3756 B(  3-Au, 16-Fe) :   0.3173
B(  4-Au,  5-Au) :   0.2815 B(  4-Au,  6-Au) :   0.2846 B(  4-Au, 16-Fe) :   0.1256
B(  5-Au,  8-Au) :   0.2790 B(  5-Au, 12-Au) :   0.2249 B(  5-Au, 16-Fe) :   0.1063
B(  6-Au,  7-Au) :   0.2208 B(  6-Au, 15-Au) :   0.2811 B(  6-Au, 16-Fe) :   0.1075
B(  7-Au, 13-Au) :   0.1770 B(  7-Au, 14-Au) :   0.2478 B(  7-Au, 15-Au) :   0.2151
B(  7-Au, 16-Fe) :   0.4151 B(  8-Au,  9-Au) :   0.2860 B(  8-Au, 10-Au) :   0.2098
B(  8-Au, 12-Au) :   0.2311 B(  8-Au, 16-Fe) :   0.1237 B(  9-Au, 10-Au) :   0.2246
B(  9-Au, 13-Au) :   0.2202 B(  9-Au, 15-Au) :   0.2816 B(  9-Au, 16-Fe) :   0.1063
B( 10-Au, 11-Au) :   0.2393 B( 10-Au, 12-Au) :   0.2043 B( 10-Au, 13-Au) :   0.2544
B( 10-Au, 16-Fe) :   0.3834 B( 11-Au, 12-Au) :   0.2571 B( 11-Au, 14-Au) :   0.2235
B( 11-Au, 16-Fe) :   0.3887 B( 12-Au, 16-Fe) :   0.4058 B( 13-Au, 14-Au) :   0.2476
B( 13-Au, 15-Au) :   0.2146 B( 13-Au, 16-Fe) :   0.4148 B( 14-Au, 16-Fe) :   0.4107
B( 15-Au, 16-Fe) :   0.1502

FINAL SINGLE POINT ENERGY     -3436.728907590805

DIPOLE MOMENT
-------------
                                X             Y             Z
Electronic contribution:      8.52703      -3.96488     -22.76222
Nuclear contribution   :     -8.60675       4.00853      22.94369
                        -----------------------------------------
Total Dipole Moment    :     -0.07972       0.04366       0.18147
                        -----------------------------------------
Magnitude (a.u.)       :      0.20296
Magnitude (Debye)      :      0.51588

Rotational constants in cm-1:     0.000855     0.000838     0.000832
Rotational constants in MHz :    25.631559    25.116494    24.930831

                             ****ORCA TERMINATED NORMALLY****
TOTAL RUN TIME: 0 days 0 hours 23 minutes 31 seconds 604 msec
