                         Program Version 5.0.3 -  RELEASE  -
|  1> !R2SCAN def2-TZVP VERYSLOWCONV
|  2>
|  3> %scf
|  4>   AutoTRAHIter 200
|  5>   maxiter 400
|  6> end
|  7>
|  8> %pal nprocs 6 end
|  9>
| 10> *xyzfile 0 5 pbe.xyz
| 11>
| 12> $new_job
| 13>
| 14> !R2SCAN def2-TZVP VERYSLOWCONV
| 15> %scf
| 16>   AutoTRAHIter 200
| 17>   maxiter 400
| 18> end
| 19>
| 20>
| 21> %pal nprocs 6 end
| 22>
| 23> *xyzfile 0 3 pbe.xyz
| 24>
| 25>
| 26>
| 27>
| 28>
| 29>                          ****END OF INPUT****
 Total Charge           Charge          ....    0
 Multiplicity           Mult            ....    5
 Number of Electrons    NEL             ....  330
FINAL SINGLE POINT ENERGY     -3437.308939548917

CARTESIAN COORDINATES (ANGSTROEM)
---------------------------------
  Au     8.040673    9.971240    8.208794
  Au     7.242951    8.646474   10.504296
  Au     9.162803    7.494259    8.888051
  Au     7.429312    7.216054    5.206956
  Au     9.657737    8.567738    6.294551
  Au     9.404847    5.844431    6.632395
  Au     7.461598   10.006177    5.478126
  Au     5.389475   10.074499    7.364336
  Au     7.056835    4.537442    6.008357
  Au     4.888490    6.024413    5.203902
  Au     4.994631    5.249759    7.882118
  Au     5.737052    6.297467   10.336036
  Au     7.665285    5.161147    8.720121
  Au     3.855524    7.697778    7.203423
  Au     4.587888    8.747556    9.655998
  Au     5.093107    8.747112    4.860716
  Fe     6.504390    7.622455    8.002474

 Multiplicity           Mult            ....    3
 Number of Electrons    NEL             ....  330
 Basis Dimension        Dim             ....  685

ORBITAL ENERGIES
----------------
                 SPIN UP ORBITALS
  NO   OCC          E(Eh)            E(eV)
   0   1.0000    -255.620950     -6955.7997
   1   1.0000     -29.898000      -813.5659
   2   1.0000     -25.736826      -700.3346
   3   1.0000     -25.732299      -700.2115
   4   1.0000     -25.726850      -700.0632
   5   1.0000      -4.132074      -112.4395
   6   1.0000      -4.125542      -112.2617
   7   1.0000      -4.125218      -112.2529
   8   1.0000      -4.124729      -112.2396
   9   1.0000      -4.124117      -112.2229
  10   1.0000      -4.123161      -112.1969
  11   1.0000      -4.122941      -112.1909
  12   1.0000      -4.121003      -112.1382
  13   1.0000      -4.120146      -112.1149
  14   1.0000      -4.119453      -112.0960
  15   1.0000      -4.118703      -112.0756
  16   1.0000      -4.118550      -112.0715
  17   1.0000      -4.117954      -112.0552
  18   1.0000      -4.114952      -111.9735
  19   1.0000      -4.114467      -111.9603
  20   1.0000      -4.114110      -111.9506
  21   1.0000      -3.462019       -94.2063
  22   1.0000      -2.319291       -63.1111
  23   1.0000      -2.318829       -63.0985
  24   1.0000      -2.315468       -63.0071
  25   1.0000      -2.314187       -62.9722
  26   1.0000      -2.313924       -62.9651
  27   1.0000      -2.313184       -62.9449
  28   1.0000      -2.312060       -62.9144
  29   1.0000      -2.311891       -62.9098
  30   1.0000      -2.311664       -62.9036
  31   1.0000      -2.311293       -62.8935
  32   1.0000      -2.310943       -62.8840
  33   1.0000      -2.310337       -62.8675
  34   1.0000      -2.310007       -62.8585
  35   1.0000      -2.309798       -62.8528
  36   1.0000      -2.309664       -62.8492
  37   1.0000      -2.308922       -62.8290
  38   1.0000      -2.308577       -62.8196
  39   1.0000      -2.308430       -62.8156
  40   1.0000      -2.308181       -62.8088
  41   1.0000      -2.307579       -62.7924
  42   1.0000      -2.307396       -62.7874
  43   1.0000      -2.307200       -62.7821
  44   1.0000      -2.306747       -62.7698
  45   1.0000      -2.306594       -62.7656
  46   1.0000      -2.306438       -62.7614
  47   1.0000      -2.306224       -62.7555
  48   1.0000      -2.305681       -62.7408
  49   1.0000      -2.305484       -62.7354
  50   1.0000      -2.305120       -62.7255
  51   1.0000      -2.304993       -62.7220
  52   1.0000      -2.304763       -62.7158
  53   1.0000      -2.304335       -62.7042
  54   1.0000      -2.303907       -62.6925
  55   1.0000      -2.303605       -62.6843
  56   1.0000      -2.303422       -62.6793
  57   1.0000      -2.302993       -62.6676
  58   1.0000      -2.301608       -62.6299
  59   1.0000      -2.301558       -62.6286
  60   1.0000      -2.301453       -62.6257
  61   1.0000      -2.301364       -62.6233
  62   1.0000      -2.301132       -62.6170
  63   1.0000      -2.300555       -62.6013
  64   1.0000      -2.300444       -62.5983
  65   1.0000      -2.299835       -62.5817
  66   1.0000      -2.299506       -62.5728
  67   1.0000      -2.297835       -62.5273
  68   1.0000      -2.297374       -62.5147
  69   1.0000      -2.296840       -62.5002
  70   1.0000      -2.234058       -60.7918
  71   1.0000      -2.233785       -60.7844
  72   1.0000      -2.218909       -60.3796
  73   1.0000      -0.436631       -11.8813
  74   1.0000      -0.401334       -10.9209
  75   1.0000      -0.395579       -10.7642
  76   1.0000      -0.394395       -10.7320
  77   1.0000      -0.383013       -10.4223
  78   1.0000      -0.382352       -10.4043
  79   1.0000      -0.380805       -10.3622
  80   1.0000      -0.379431       -10.3248
  81   1.0000      -0.378863       -10.3094
  82   1.0000      -0.376181       -10.2364
  83   1.0000      -0.373956       -10.1759
  84   1.0000      -0.373093       -10.1524
  85   1.0000      -0.371467       -10.1081
  86   1.0000      -0.368373       -10.0239
  87   1.0000      -0.367377        -9.9968
  88   1.0000      -0.364934        -9.9303
  89   1.0000      -0.363943        -9.9034
  90   1.0000      -0.363258        -9.8847
  91   1.0000      -0.361029        -9.8241
  92   1.0000      -0.359320        -9.7776
  93   1.0000      -0.358887        -9.7658
  94   1.0000      -0.358080        -9.7438
  95   1.0000      -0.357485        -9.7277
  96   1.0000      -0.353866        -9.6292
  97   1.0000      -0.353290        -9.6135
  98   1.0000      -0.350834        -9.5467
  99   1.0000      -0.339850        -9.2478
 100   1.0000      -0.339146        -9.2286
 101   1.0000      -0.338791        -9.2190
 102   1.0000      -0.335529        -9.1302
 103   1.0000      -0.334491        -9.1020
 104   1.0000      -0.331229        -9.0132
 105   1.0000      -0.330371        -8.9898
 106   1.0000      -0.327775        -8.9192
 107   1.0000      -0.326833        -8.8936
 108   1.0000      -0.325775        -8.8648
 109   1.0000      -0.320541        -8.7224
 110   1.0000      -0.319318        -8.6891
 111   1.0000      -0.317560        -8.6412
 112   1.0000      -0.316643        -8.6163
 113   1.0000      -0.316447        -8.6110
 114   1.0000      -0.315517        -8.5856
 115   1.0000      -0.313122        -8.5205
 116   1.0000      -0.311560        -8.4780
 117   1.0000      -0.306347        -8.3361
 118   1.0000      -0.304217        -8.2782
 119   1.0000      -0.302537        -8.2325
 120   1.0000      -0.301130        -8.1942
 121   1.0000      -0.298527        -8.1233
 122   1.0000      -0.296477        -8.0675
 123   1.0000      -0.294042        -8.0013
 124   1.0000      -0.289417        -7.8754
 125   1.0000      -0.286354        -7.7921
 126   1.0000      -0.285466        -7.7679
 127   1.0000      -0.284627        -7.7451
 128   1.0000      -0.284103        -7.7308
 129   1.0000      -0.282122        -7.6769
 130   1.0000      -0.280828        -7.6417
 131   1.0000      -0.278270        -7.5721
 132   1.0000      -0.277930        -7.5629
 133   1.0000      -0.273601        -7.4451
 134   1.0000      -0.273394        -7.4394
 135   1.0000      -0.272681        -7.4200
 136   1.0000      -0.271591        -7.3904
 137   1.0000      -0.270179        -7.3520
 138   1.0000      -0.269159        -7.3242
 139   1.0000      -0.267681        -7.2840
 140   1.0000      -0.266867        -7.2618
 141   1.0000      -0.264880        -7.2078
 142   1.0000      -0.264824        -7.2062
 143   1.0000      -0.264421        -7.1953
 144   1.0000      -0.263897        -7.1810
 145   1.0000      -0.263366        -7.1665
 146   1.0000      -0.262731        -7.1493
 147   1.0000      -0.261981        -7.1289
 148   1.0000      -0.258299        -7.0287
 149   1.0000      -0.256003        -6.9662
 150   1.0000      -0.255740        -6.9590
 151   1.0000      -0.255651        -6.9566
 152   1.0000      -0.255484        -6.9521
 153   1.0000      -0.253936        -6.9100
 154   1.0000      -0.253103        -6.8873
 155   1.0000      -0.251009        -6.8303
 156   1.0000      -0.249570        -6.7912
 157   1.0000      -0.248943        -6.7741
 158   1.0000      -0.248657        -6.7663
 159   1.0000      -0.236689        -6.4406
 160   1.0000      -0.232111        -6.3161
 161   1.0000      -0.226862        -6.1732
 162   1.0000      -0.221174        -6.0184
 163   1.0000      -0.215330        -5.8594
 164   1.0000      -0.210824        -5.7368
 165   1.0000      -0.206230        -5.6118
 166   0.0000      -0.193536        -5.2664
 167   0.0000      -0.155243        -4.2244
 168   0.0000      -0.132917        -3.6168
 169   0.0000      -0.132142        -3.5958
 170   0.0000      -0.125206        -3.4070

                 SPIN DOWN ORBITALS
  NO   OCC          E(Eh)            E(eV)
   0   1.0000    -255.620331     -6955.7828
   1   1.0000     -29.848129      -812.2089
   2   1.0000     -25.702430      -699.3987
   3   1.0000     -25.695042      -699.1976
   4   1.0000     -25.684319      -698.9058
   5   1.0000      -4.132330      -112.4464
   6   1.0000      -4.125928      -112.2722
   7   1.0000      -4.125676      -112.2653
   8   1.0000      -4.124257      -112.2267
   9   1.0000      -4.123654      -112.2103
  10   1.0000      -4.122628      -112.1824
  11   1.0000      -4.122584      -112.1812
  12   1.0000      -4.121127      -112.1416
  13   1.0000      -4.120128      -112.1144
  14   1.0000      -4.119541      -112.0984
  15   1.0000      -4.119024      -112.0843
  16   1.0000      -4.118148      -112.0605
  17   1.0000      -4.117545      -112.0441
  18   1.0000      -4.115117      -111.9780
  19   1.0000      -4.114588      -111.9636
  20   1.0000      -4.114231      -111.9539
  21   1.0000      -3.342049       -90.9418
  22   1.0000      -2.319374       -63.1134
  23   1.0000      -2.319075       -63.1052
  24   1.0000      -2.315815       -63.0165
  25   1.0000      -2.314337       -62.9763
  26   1.0000      -2.314017       -62.9676
  27   1.0000      -2.312955       -62.9387
  28   1.0000      -2.312145       -62.9167
  29   1.0000      -2.311924       -62.9107
  30   1.0000      -2.311664       -62.9036
  31   1.0000      -2.311161       -62.8899
  32   1.0000      -2.310669       -62.8765
  33   1.0000      -2.310205       -62.8639
  34   1.0000      -2.310117       -62.8615
  35   1.0000      -2.309670       -62.8493
  36   1.0000      -2.309221       -62.8371
  37   1.0000      -2.308639       -62.8212
  38   1.0000      -2.308446       -62.8160
  39   1.0000      -2.308212       -62.8096
  40   1.0000      -2.308064       -62.8056
  41   1.0000      -2.307214       -62.7825
  42   1.0000      -2.307117       -62.7799
  43   1.0000      -2.306962       -62.7756
  44   1.0000      -2.306691       -62.7683
  45   1.0000      -2.306227       -62.7556
  46   1.0000      -2.306094       -62.7520
  47   1.0000      -2.305974       -62.7487
  48   1.0000      -2.305703       -62.7414
  49   1.0000      -2.305431       -62.7340
  50   1.0000      -2.305110       -62.7252
  51   1.0000      -2.304886       -62.7191
  52   1.0000      -2.304538       -62.7097
  53   1.0000      -2.304333       -62.7041
  54   1.0000      -2.303604       -62.6842
  55   1.0000      -2.303484       -62.6810
  56   1.0000      -2.303204       -62.6734
  57   1.0000      -2.303050       -62.6692
  58   1.0000      -2.301673       -62.6317
  59   1.0000      -2.301520       -62.6276
  60   1.0000      -2.301291       -62.6213
  61   1.0000      -2.301167       -62.6179
  62   1.0000      -2.301104       -62.6162
  63   1.0000      -2.300767       -62.6070
  64   1.0000      -2.300262       -62.5933
  65   1.0000      -2.300013       -62.5865
  66   1.0000      -2.299615       -62.5757
  67   1.0000      -2.297991       -62.5315
  68   1.0000      -2.297586       -62.5205
  69   1.0000      -2.297016       -62.5050
  70   1.0000      -2.129040       -57.9341
  71   1.0000      -2.116672       -57.5976
  72   1.0000      -2.092531       -56.9407
  73   1.0000      -0.434585       -11.8257
  74   1.0000      -0.400967       -10.9109
  75   1.0000      -0.395543       -10.7633
  76   1.0000      -0.394172       -10.7260
  77   1.0000      -0.382236       -10.4012
  78   1.0000      -0.379801       -10.3349
  79   1.0000      -0.379664       -10.3312
  80   1.0000      -0.377362       -10.2685
  81   1.0000      -0.376920       -10.2565
  82   1.0000      -0.374984       -10.2038
  83   1.0000      -0.374078       -10.1792
  84   1.0000      -0.372395       -10.1334
  85   1.0000      -0.368285       -10.0215
  86   1.0000      -0.367962       -10.0128
  87   1.0000      -0.367376        -9.9968
  88   1.0000      -0.363883        -9.9018
  89   1.0000      -0.363573        -9.8933
  90   1.0000      -0.362757        -9.8711
  91   1.0000      -0.359374        -9.7791
  92   1.0000      -0.358251        -9.7485
  93   1.0000      -0.357948        -9.7403
  94   1.0000      -0.357428        -9.7261
  95   1.0000      -0.357102        -9.7172
  96   1.0000      -0.354101        -9.6356
  97   1.0000      -0.353173        -9.6103
  98   1.0000      -0.350888        -9.5481
  99   1.0000      -0.339897        -9.2491
 100   1.0000      -0.339273        -9.2321
 101   1.0000      -0.338918        -9.2224
 102   1.0000      -0.335722        -9.1355
 103   1.0000      -0.334653        -9.1064
 104   1.0000      -0.331053        -9.0084
 105   1.0000      -0.329679        -8.9710
 106   1.0000      -0.326524        -8.8852
 107   1.0000      -0.325860        -8.8671
 108   1.0000      -0.324404        -8.8275
 109   1.0000      -0.320551        -8.7226
 110   1.0000      -0.317197        -8.6314
 111   1.0000      -0.316766        -8.6196
 112   1.0000      -0.315788        -8.5930
 113   1.0000      -0.315182        -8.5765
 114   1.0000      -0.314137        -8.5481
 115   1.0000      -0.307009        -8.3541
 116   1.0000      -0.306210        -8.3324
 117   1.0000      -0.305964        -8.3257
 118   1.0000      -0.302584        -8.2337
 119   1.0000      -0.301320        -8.1993
 120   1.0000      -0.301020        -8.1912
 121   1.0000      -0.297327        -8.0907
 122   1.0000      -0.293569        -7.9884
 123   1.0000      -0.293197        -7.9783
 124   1.0000      -0.284820        -7.7503
 125   1.0000      -0.284357        -7.7378
 126   1.0000      -0.283979        -7.7275
 127   1.0000      -0.283845        -7.7238
 128   1.0000      -0.283127        -7.7043
 129   1.0000      -0.282224        -7.6797
 130   1.0000      -0.279013        -7.5923
 131   1.0000      -0.277683        -7.5561
 132   1.0000      -0.277424        -7.5491
 133   1.0000      -0.273558        -7.4439
 134   1.0000      -0.272899        -7.4260
 135   1.0000      -0.272309        -7.4099
 136   1.0000      -0.269860        -7.3433
 137   1.0000      -0.269663        -7.3379
 138   1.0000      -0.267662        -7.2835
 139   1.0000      -0.267255        -7.2724
 140   1.0000      -0.265210        -7.2167
 141   1.0000      -0.264645        -7.2014
 142   1.0000      -0.264350        -7.1933
 143   1.0000      -0.263635        -7.1739
 144   1.0000      -0.263074        -7.1586
 145   1.0000      -0.262188        -7.1345
 146   1.0000      -0.261984        -7.1290
 147   1.0000      -0.255987        -6.9658
 148   1.0000      -0.255944        -6.9646
 149   1.0000      -0.255529        -6.9533
 150   1.0000      -0.255505        -6.9527
 151   1.0000      -0.255374        -6.9491
 152   1.0000      -0.253142        -6.8883
 153   1.0000      -0.250073        -6.8048
 154   1.0000      -0.249847        -6.7987
 155   1.0000      -0.248939        -6.7740
 156   1.0000      -0.236607        -6.4384
 157   1.0000      -0.232037        -6.3140
 158   1.0000      -0.227047        -6.1783
 159   1.0000      -0.223526        -6.0824
 160   1.0000      -0.216978        -5.9043
 161   1.0000      -0.216162        -5.8821
 162   1.0000      -0.200992        -5.4693
 163   1.0000      -0.185484        -5.0473
 164   0.0000      -0.153185        -4.1684
 165   0.0000      -0.145983        -3.9724
 166   0.0000      -0.138100        -3.7579
 167   0.0000      -0.135789        -3.6950
 168   0.0000      -0.125841        -3.4243

MULLIKEN ATOMIC CHARGES AND SPIN POPULATIONS
--------------------------------------------
   0 Au:    0.117428   -0.108809
   1 Au:    0.241151    0.006919
   2 Au:    0.053979    0.038312
   3 Au:   -0.618961   -0.084337
   4 Au:    0.164752    0.007728
   5 Au:    0.271605   -0.015904
   6 Au:    0.250210    0.017003
   7 Au:    0.099151    0.013735
   8 Au:    0.165515    0.000138
   9 Au:    0.256719    0.030765
  10 Au:    0.112076   -0.092911
  11 Au:    0.239346    0.002724
  12 Au:    0.064203    0.015228
  13 Au:    0.088978    0.044795
  14 Au:    0.256951   -0.056947
  15 Au:    0.160812   -0.025045
  16 Fe:   -1.923915    2.206606
Sum of atomic charges         :   -0.0000000

LOEWDIN ATOMIC CHARGES AND SPIN POPULATIONS
-------------------------------------------
   0 Au:    0.026371   -0.053440
   1 Au:    0.067503   -0.005935
   2 Au:    0.010058    0.022118
   3 Au:   -0.053996   -0.037994
   4 Au:    0.023448   -0.016178
   5 Au:    0.022978   -0.011264
   6 Au:    0.026887   -0.014669
   7 Au:    0.024450    0.008119
   8 Au:    0.026086   -0.014011
   9 Au:    0.023568   -0.001422
  10 Au:    0.025574   -0.049712
  11 Au:    0.069044   -0.006500
  12 Au:    0.013572    0.014873
  13 Au:    0.018607    0.026728
  14 Au:    0.069630   -0.047257
  15 Au:    0.018438   -0.013578
  16 Fe:   -0.412216    2.200120

  Mayer bond orders larger than 0.100000
B(  0-Au,  1-Au) :   0.2467 B(  0-Au,  2-Au) :   0.1850 B(  0-Au,  4-Au) :   0.2028
B(  0-Au,  6-Au) :   0.2120 B(  0-Au,  7-Au) :   0.2292 B(  0-Au, 16-Fe) :   0.4033
B(  1-Au,  2-Au) :   0.2407 B(  1-Au, 11-Au) :   0.2126 B(  1-Au, 14-Au) :   0.2192
B(  1-Au, 16-Fe) :   0.3760 B(  2-Au,  4-Au) :   0.2036 B(  2-Au,  5-Au) :   0.2112
B(  2-Au, 12-Au) :   0.2523 B(  2-Au, 16-Fe) :   0.3817 B(  3-Au,  4-Au) :   0.3413
B(  3-Au,  5-Au) :   0.3438 B(  3-Au,  6-Au) :   0.3621 B(  3-Au,  8-Au) :   0.3618
B(  3-Au,  9-Au) :   0.3514 B(  3-Au, 15-Au) :   0.3356 B(  3-Au, 16-Fe) :   0.3148
B(  4-Au,  5-Au) :   0.2686 B(  4-Au,  6-Au) :   0.2760 B(  4-Au, 16-Fe) :   0.1229
B(  5-Au,  8-Au) :   0.2672 B(  5-Au, 12-Au) :   0.2181 B(  6-Au,  7-Au) :   0.2036
B(  6-Au, 15-Au) :   0.2681 B(  6-Au, 16-Fe) :   0.1106 B(  7-Au, 13-Au) :   0.1682
B(  7-Au, 14-Au) :   0.2399 B(  7-Au, 15-Au) :   0.2065 B(  7-Au, 16-Fe) :   0.4135
B(  8-Au,  9-Au) :   0.2758 B(  8-Au, 10-Au) :   0.1927 B(  8-Au, 12-Au) :   0.2017
B(  8-Au, 16-Fe) :   0.1253 B(  9-Au, 10-Au) :   0.2148 B(  9-Au, 13-Au) :   0.2047
B(  9-Au, 15-Au) :   0.2687 B(  9-Au, 16-Fe) :   0.1051 B( 10-Au, 11-Au) :   0.2453
B( 10-Au, 12-Au) :   0.1791 B( 10-Au, 13-Au) :   0.2448 B( 10-Au, 16-Fe) :   0.3981
B( 11-Au, 12-Au) :   0.2449 B( 11-Au, 14-Au) :   0.2138 B( 11-Au, 16-Fe) :   0.3876
B( 12-Au, 16-Fe) :   0.3876 B( 13-Au, 14-Au) :   0.2307 B( 13-Au, 15-Au) :   0.1992
B( 13-Au, 16-Fe) :   0.3970 B( 14-Au, 16-Fe) :   0.3794 B( 15-Au, 16-Fe) :   0.1326

FINAL SINGLE POINT ENERGY     -3437.271567173407

DIPOLE MOMENT
-------------
                                X             Y             Z
Electronic contribution:      8.54142      -3.97562     -22.76329
Nuclear contribution   :     -8.60675       4.00853      22.94369
                        -----------------------------------------
Total Dipole Moment    :     -0.06534       0.03291       0.18040
                        -----------------------------------------
Magnitude (a.u.)       :      0.19467
Magnitude (Debye)      :      0.49481

Rotational constants in cm-1:     0.000855     0.000838     0.000832
Rotational constants in MHz :    25.631559    25.116494    24.930831

                             ****ORCA TERMINATED NORMALLY****
TOTAL RUN TIME: 0 days 0 hours 24 minutes 29 seconds 461 msec
