                         Program Version 5.0.3 -  RELEASE  -
|  1> !CASSCF def2-TZVP def2-TZVP/C
|  2> !MOREAD RIJCOSX
|  3> %maxcore 6000
|  4> %moinp "pbe.qro"
|  5> %pal nprocs 2 end
|  6>
|  7> %casscf
|  8>  mult 5,3
|  9>  bweight 1,1
| 10>  nroots 5,45
| 11>  nel 6
| 12>  norb 5
| 13> end
| 14>
| 15>
| 16> *xyzfile 0 5 pbe.xyz
| 17>
| 18>
| 19>                          ****END OF INPUT****

CARTESIAN COORDINATES (ANGSTROEM)
---------------------------------
  Au     9.111546    7.616935   10.022949
  Au     7.046061    5.537509    9.757087
  Au     5.705755    9.310820    7.430289
  Au     3.756002    7.841357    6.114502
  Au     5.685929    9.486720    4.662723
  Au     8.180196    9.877759    8.533173
  Au     4.980818    6.431928    8.142377
  Au     6.326386    8.288939    9.929989
  Au     7.111678    4.794786    7.005406
  Au     8.221004    9.193384    5.702575
  Au    10.210779    8.237784    7.375035
  Au     8.967239    6.382546    5.610272
  Au     9.576685    5.519120    8.281182
  Au     6.251926    6.871497    5.394792
  Fe     7.632341    7.342161    7.758810

 Total Charge           Charge          ....    0
 Multiplicity           Mult            ....    5
 Number of Electrons    NEL             ....  292
 Basis Dimension        Dim             ....  605

ORBITAL ENERGIES
----------------

  NO   OCC          E(Eh)            E(eV)
   0   2.0000    -261.275881     -7109.6782
   1   2.0000     -31.822666      -865.9388
   2   2.0000     -27.311826      -743.1926
   3   2.0000     -27.300103      -742.8736
   4   2.0000     -27.299973      -742.8700
   5   2.0000      -4.722128      -128.4956
   6   2.0000      -4.722092      -128.4947
   7   2.0000      -4.721767      -128.4858
   8   2.0000      -4.721760      -128.4856
   9   2.0000      -4.718435      -128.3951
  10   2.0000      -4.718110      -128.3863
  11   2.0000      -4.711189      -128.1980
  12   2.0000      -4.710843      -128.1885
  13   2.0000      -4.708220      -128.1172
  14   2.0000      -4.708191      -128.1164
  15   2.0000      -4.707635      -128.1013
  16   2.0000      -4.707615      -128.1007
  17   2.0000      -4.704933      -128.0277
  18   2.0000      -4.704795      -128.0240
  19   2.0000      -4.055295      -110.3502
  20   2.0000      -2.764010       -75.2125
  21   2.0000      -2.763937       -75.2105
  22   2.0000      -2.760546       -75.1183
  23   2.0000      -2.760474       -75.1163
  24   2.0000      -2.760286       -75.1112
  25   2.0000      -2.760175       -75.1082
  26   2.0000      -2.758997       -75.0761
  27   2.0000      -2.758839       -75.0718
  28   2.0000      -2.758685       -75.0676
  29   2.0000      -2.758594       -75.0652
  30   2.0000      -2.756063       -74.9963
  31   2.0000      -2.756012       -74.9949
  32   2.0000      -2.754761       -74.9609
  33   2.0000      -2.754299       -74.9483
  34   2.0000      -2.753841       -74.9358
  35   2.0000      -2.752744       -74.9060
  36   2.0000      -2.752387       -74.8962
  37   2.0000      -2.752156       -74.8900
  38   2.0000      -2.750922       -74.8564
  39   2.0000      -2.747643       -74.7672
  40   2.0000      -2.747615       -74.7664
  41   2.0000      -2.747565       -74.7651
  42   2.0000      -2.747153       -74.7538
  43   2.0000      -2.746827       -74.7450
  44   2.0000      -2.745793       -74.7168
  45   2.0000      -2.743959       -74.6669
  46   2.0000      -2.743924       -74.6660
  47   2.0000      -2.743677       -74.6592
  48   2.0000      -2.742955       -74.6396
  49   2.0000      -2.742859       -74.6370
  50   2.0000      -2.742597       -74.6299
  51   2.0000      -2.742390       -74.6242
  52   2.0000      -2.741880       -74.6104
  53   2.0000      -2.741823       -74.6088
  54   2.0000      -2.741785       -74.6078
  55   2.0000      -2.741593       -74.6026
  56   2.0000      -2.741352       -74.5960
  57   2.0000      -2.739888       -74.5561
  58   2.0000      -2.739007       -74.5322
  59   2.0000      -2.738842       -74.5277
  60   2.0000      -2.738461       -74.5173
  61   2.0000      -2.737388       -74.4881
  62   2.0000      -2.645811       -71.9962
  63   2.0000      -2.638073       -71.7856
  64   2.0000      -2.637191       -71.7616
  65   2.0000      -0.577992       -15.7280
  66   2.0000      -0.563324       -15.3288
  67   2.0000      -0.558112       -15.1870
  68   2.0000      -0.553457       -15.0603
  69   2.0000      -0.553343       -15.0572
  70   2.0000      -0.548006       -14.9120
  71   2.0000      -0.547750       -14.9050
  72   2.0000      -0.546304       -14.8657
  73   2.0000      -0.543567       -14.7912
  74   2.0000      -0.541776       -14.7425
  75   2.0000      -0.541642       -14.7388
  76   2.0000      -0.540764       -14.7149
  77   2.0000      -0.538308       -14.6481
  78   2.0000      -0.535895       -14.5824
  79   2.0000      -0.535457       -14.5705
  80   2.0000      -0.535322       -14.5669
  81   2.0000      -0.533725       -14.5234
  82   2.0000      -0.531148       -14.4533
  83   2.0000      -0.531025       -14.4499
  84   2.0000      -0.528733       -14.3875
  85   2.0000      -0.525054       -14.2875
  86   2.0000      -0.523697       -14.2505
  87   2.0000      -0.520077       -14.1520
  88   2.0000      -0.518059       -14.0971
  89   2.0000      -0.515856       -14.0371
  90   2.0000      -0.508463       -13.8360
  91   2.0000      -0.502693       -13.6790
  92   2.0000      -0.500359       -13.6154
  93   2.0000      -0.499668       -13.5967
  94   2.0000      -0.495381       -13.4800
  95   2.0000      -0.494118       -13.4456
  96   2.0000      -0.492741       -13.4082
  97   2.0000      -0.492655       -13.4058
  98   2.0000      -0.483357       -13.1528
  99   2.0000      -0.482641       -13.1333
 100   2.0000      -0.478959       -13.0331
 101   2.0000      -0.469693       -12.7810
 102   2.0000      -0.465638       -12.6707
 103   2.0000      -0.463433       -12.6106
 104   2.0000      -0.461571       -12.5600
 105   2.0000      -0.457978       -12.4622
 106   2.0000      -0.456881       -12.4324
 107   2.0000      -0.456671       -12.4267
 108   2.0000      -0.456577       -12.4241
 109   2.0000      -0.455107       -12.3841
 110   2.0000      -0.454399       -12.3648
 111   2.0000      -0.451310       -12.2808
 112   2.0000      -0.449864       -12.2414
 113   2.0000      -0.449676       -12.2363
 114   2.0000      -0.446391       -12.1469
 115   2.0000      -0.445931       -12.1344
 116   2.0000      -0.445150       -12.1131
 117   2.0000      -0.444470       -12.0946
 118   2.0000      -0.442198       -12.0328
 119   2.0000      -0.440427       -11.9846
 120   2.0000      -0.438564       -11.9339
 121   2.0000      -0.435634       -11.8542
 122   2.0000      -0.432361       -11.7651
 123   2.0000      -0.431700       -11.7472
 124   2.0000      -0.430129       -11.7044
 125   2.0000      -0.428330       -11.6554
 126   2.0000      -0.425851       -11.5880
 127   2.0000      -0.424407       -11.5487
 128   2.0000      -0.423354       -11.5201
 129   2.0000      -0.421906       -11.4807
 130   2.0000      -0.419279       -11.4091
 131   2.0000      -0.412659       -11.2290
 132   2.0000      -0.412058       -11.2127
 133   2.0000      -0.409127       -11.1329
 134   2.0000      -0.396150       -10.7798
 135   2.0000      -0.392476       -10.6798
 136   2.0000      -0.381177       -10.3724
 137   2.0000      -0.376494       -10.2449
 138   2.0000      -0.344374        -9.3709
 139   2.0000      -0.337983        -9.1970
 140   2.0000      -0.255881        -6.9629
 141   2.0000      -0.232597        -6.3293
 142   2.0000      -0.223649        -6.0858
 143   1.2000      -0.187401        -5.0994
 144   1.2000      -0.134875        -3.6701
 145   1.2000      -0.113067        -3.0767
 146   1.2000      -0.154754        -4.2111
 147   1.2000      -0.159811        -4.3487
 148   0.0000      -0.050981        -1.3873
 149   0.0000      -0.020071        -0.5462
 150   0.0000      -0.002296        -0.0625
 151   0.0000       0.003816         0.1038
 152   0.0000       0.019907         0.5417

MULLIKEN ATOMIC CHARGES AND SPIN DENSITIES
------------------------------------------
   0 Au:    0.191968    0.108648
   1 Au:    0.215326    0.016355
   2 Au:   -0.370396    0.113675
   3 Au:    0.431219    0.012185
   4 Au:    0.430856    0.012174
   5 Au:    0.475142    0.020763
   6 Au:   -0.173744    0.010814
   7 Au:    0.480844    0.020761
   8 Au:    0.474824    0.021144
   9 Au:   -0.175046    0.010886
  10 Au:    0.215380    0.016240
  11 Au:    0.481012    0.020833
  12 Au:    0.194722    0.111422
  13 Au:   -0.372419    0.109414
  14 Fe:   -2.499688    2.394688
Sum of atomic charges       :    0.0000000

LOEWDIN ATOMIC CHARGES AND SPIN DENSITIES
-----------------------------------------
   0 Au:    0.049080    0.078234
   1 Au:    0.060140    0.031825
   2 Au:   -0.091787    0.064249
   3 Au:    0.113979    0.028321
   4 Au:    0.113723    0.028384
   5 Au:    0.105120    0.049315
   6 Au:   -0.021350    0.023000
   7 Au:    0.104459    0.049235
   8 Au:    0.105066    0.049140
   9 Au:   -0.021767    0.023115
  10 Au:    0.060094    0.031635
  11 Au:    0.104463    0.048958
  12 Au:    0.050043    0.079920
  13 Au:   -0.092654    0.062274
  14 Fe:   -0.638608    2.352396

  Mayer bond orders larger than 0.100000
B(  0-Au,  1-Au) :   0.1083 B(  0-Au,  5-Au) :   0.1360 B(  0-Au,  7-Au) :   0.1322
B(  0-Au, 10-Au) :   0.1109 B(  0-Au, 12-Au) :   0.2037 B(  0-Au, 14-Fe) :   0.3300
B(  1-Au,  6-Au) :   0.3501 B(  1-Au,  7-Au) :   0.1055 B(  1-Au,  8-Au) :   0.1022
B(  1-Au, 12-Au) :   0.1125 B(  1-Au, 14-Fe) :   0.3265 B(  2-Au,  3-Au) :   0.2546
B(  2-Au,  4-Au) :   0.2539 B(  2-Au,  5-Au) :   0.2471 B(  2-Au,  6-Au) :   0.1585
B(  2-Au,  7-Au) :   0.2398 B(  2-Au,  9-Au) :   0.1580 B(  2-Au, 13-Au) :   0.2835
B(  2-Au, 14-Fe) :   0.3360 B(  3-Au,  6-Au) :   0.3361 B(  3-Au, 13-Au) :   0.2534
B(  4-Au,  9-Au) :   0.3366 B(  4-Au, 13-Au) :   0.2533 B(  5-Au,  7-Au) :   0.2048
B(  5-Au, 10-Au) :   0.1000 B(  5-Au, 14-Fe) :   0.2908 B(  6-Au, 13-Au) :   0.1559
B(  6-Au, 14-Fe) :   0.3803 B(  7-Au, 14-Fe) :   0.2887 B(  8-Au, 11-Au) :   0.2043
B(  8-Au, 12-Au) :   0.1323 B(  8-Au, 13-Au) :   0.2503 B(  8-Au, 14-Fe) :   0.2911
B(  9-Au, 10-Au) :   0.3505 B(  9-Au, 13-Au) :   0.1562 B(  9-Au, 14-Fe) :   0.3802
B( 10-Au, 11-Au) :   0.1072 B( 10-Au, 12-Au) :   0.1105 B( 10-Au, 14-Fe) :   0.3263
B( 11-Au, 12-Au) :   0.1278 B( 11-Au, 13-Au) :   0.2439 B( 11-Au, 14-Fe) :   0.2888
B( 12-Au, 14-Fe) :   0.3283 B( 13-Au, 14-Fe) :   0.3373

FINAL SINGLE POINT ENERGY     -3149.598592089418

DIPOLE MOMENT
-------------
                                X             Y             Z
Electronic contribution:    -15.63748       7.10746     -12.73944
Nuclear contribution   :     15.60088      -7.09262      12.71077
                        -----------------------------------------
Total Dipole Moment    :     -0.03660       0.01485      -0.02867
                        -----------------------------------------
Magnitude (a.u.)       :      0.04880
Magnitude (Debye)      :      0.12405

Rotational constants in cm-1:     0.001295     0.000988     0.000931
Rotational constants in MHz :    38.810907    29.619749    27.909082

                             ****ORCA TERMINATED NORMALLY****
TOTAL RUN TIME: 0 days 0 hours 31 minutes 4 seconds 609 msec
