                         Program Version 5.0.3 -  RELEASE  -
|  1> %pal nprocs 4 end
|  2>
|  3> !PBE def2-TZVP OPT UNO
|  4> !SLOWCONV KDIIS
|  5>
|  6> %geom maxiter 300 end
|  7>
|  8> *xyzfile 0 4 8.xyz
|  9>
| 10>                          ****END OF INPUT****
 Total Charge           Charge          ....    0
 Multiplicity           Mult            ....    4
 Number of Electrons    NEL             ....  215
FINAL SINGLE POINT ENERGY     -2509.016674304136
FINAL SINGLE POINT ENERGY     -2509.019348229457
FINAL SINGLE POINT ENERGY     -2509.020718402679
FINAL SINGLE POINT ENERGY     -2509.022043660275
FINAL SINGLE POINT ENERGY     -2509.022508509397
FINAL SINGLE POINT ENERGY     -2509.022736623019
FINAL SINGLE POINT ENERGY     -2509.022935297548
FINAL SINGLE POINT ENERGY     -2509.023077442275
FINAL SINGLE POINT ENERGY     -2509.023162391337
FINAL SINGLE POINT ENERGY     -2509.023241972227
FINAL SINGLE POINT ENERGY     -2509.023981773253
FINAL SINGLE POINT ENERGY     -2509.023999058995
FINAL SINGLE POINT ENERGY     -2509.024021907914
FINAL SINGLE POINT ENERGY     -2509.024029183654
FINAL SINGLE POINT ENERGY     -2509.024033828661
FINAL SINGLE POINT ENERGY     -2509.024038147604
FINAL SINGLE POINT ENERGY     -2509.024041274537
FINAL SINGLE POINT ENERGY     -2509.024042990873
FINAL SINGLE POINT ENERGY     -2509.024044197371
                    ***********************HURRAY********************

CARTESIAN COORDINATES (ANGSTROEM)
---------------------------------
  Au     7.784069    7.302346    4.443493
  Au     6.182142    6.181766    6.647033
  Au     9.961891    7.808561    5.948277
  Au     7.248241   10.079390    4.740316
  Au     5.211124    6.578112    4.078771
  Au     5.065098    8.728768    5.853425
  Au     7.700976    9.497693   10.213228
  Au     9.597351    8.590711    8.511293
  Au     7.116480    7.077112    8.943767
  Au     5.753729    9.709748    8.271275
  Mn     7.574908    8.556626    6.823666

 Multiplicity           Mult            ....    4
 Number of Electrons    NEL             ....  215
 Basis Dimension        Dim             ....  445

ORBITAL ENERGIES
----------------
                 SPIN UP ORBITALS
  NO   OCC          E(Eh)            E(eV)
   0   1.0000    -234.201281     -6372.9409
   1   1.0000     -26.898643      -731.9493
   2   1.0000     -23.048529      -627.1824
   3   1.0000     -23.046922      -627.1386
   4   1.0000     -23.046514      -627.1275
   5   1.0000      -4.027146      -109.5842
   6   1.0000      -4.027029      -109.5810
   7   1.0000      -4.024099      -109.5013
   8   1.0000      -4.022235      -109.4506
   9   1.0000      -4.020902      -109.4143
  10   1.0000      -4.020749      -109.4101
  11   1.0000      -4.017637      -109.3255
  12   1.0000      -4.015586      -109.2697
  13   1.0000      -4.012857      -109.1954
  14   1.0000      -4.011816      -109.1671
  15   1.0000      -3.104063       -84.4659
  16   1.0000      -2.244848       -61.0854
  17   1.0000      -2.244465       -61.0750
  18   1.0000      -2.242960       -61.0340
  19   1.0000      -2.240684       -60.9721
  20   1.0000      -2.240108       -60.9564
  21   1.0000      -2.239681       -60.9448
  22   1.0000      -2.239501       -60.9399
  23   1.0000      -2.238236       -60.9055
  24   1.0000      -2.237537       -60.8865
  25   1.0000      -2.236730       -60.8645
  26   1.0000      -2.236314       -60.8532
  27   1.0000      -2.235648       -60.8351
  28   1.0000      -2.234842       -60.8132
  29   1.0000      -2.234577       -60.8059
  30   1.0000      -2.234283       -60.7979
  31   1.0000      -2.232137       -60.7395
  32   1.0000      -2.230942       -60.7070
  33   1.0000      -2.230844       -60.7044
  34   1.0000      -2.230641       -60.6988
  35   1.0000      -2.229125       -60.6576
  36   1.0000      -2.228235       -60.6334
  37   1.0000      -2.227762       -60.6205
  38   1.0000      -2.227647       -60.6173
  39   1.0000      -2.227123       -60.6031
  40   1.0000      -2.225847       -60.5684
  41   1.0000      -2.225433       -60.5571
  42   1.0000      -2.223545       -60.5057
  43   1.0000      -2.222441       -60.4757
  44   1.0000      -2.222216       -60.4696
  45   1.0000      -2.221567       -60.4519
  46   1.0000      -2.009401       -54.6786
  47   1.0000      -2.005328       -54.5678
  48   1.0000      -2.004725       -54.5513
  49   1.0000      -0.409300       -11.1376
  50   1.0000      -0.374480       -10.1901
  51   1.0000      -0.368371       -10.0239
  52   1.0000      -0.364886        -9.9290
  53   1.0000      -0.360817        -9.8183
  54   1.0000      -0.357581        -9.7303
  55   1.0000      -0.354396        -9.6436
  56   1.0000      -0.347261        -9.4495
  57   1.0000      -0.341362        -9.2889
  58   1.0000      -0.338687        -9.2162
  59   1.0000      -0.336335        -9.1522
  60   1.0000      -0.335507        -9.1296
  61   1.0000      -0.330902        -9.0043
  62   1.0000      -0.329499        -8.9661
  63   1.0000      -0.326013        -8.8713
  64   1.0000      -0.319138        -8.6842
  65   1.0000      -0.315533        -8.5861
  66   1.0000      -0.314521        -8.5585
  67   1.0000      -0.310658        -8.4534
  68   1.0000      -0.308397        -8.3919
  69   1.0000      -0.304487        -8.2855
  70   1.0000      -0.300468        -8.1762
  71   1.0000      -0.299836        -8.1589
  72   1.0000      -0.297392        -8.0924
  73   1.0000      -0.296118        -8.0578
  74   1.0000      -0.290008        -7.8915
  75   1.0000      -0.286699        -7.8015
  76   1.0000      -0.285919        -7.7802
  77   1.0000      -0.282062        -7.6753
  78   1.0000      -0.280622        -7.6361
  79   1.0000      -0.279761        -7.6127
  80   1.0000      -0.276096        -7.5130
  81   1.0000      -0.275285        -7.4909
  82   1.0000      -0.272364        -7.4114
  83   1.0000      -0.270041        -7.3482
  84   1.0000      -0.269033        -7.3207
  85   1.0000      -0.268299        -7.3008
  86   1.0000      -0.266557        -7.2534
  87   1.0000      -0.264787        -7.2052
  88   1.0000      -0.263815        -7.1788
  89   1.0000      -0.261458        -7.1146
  90   1.0000      -0.260014        -7.0753
  91   1.0000      -0.257249        -7.0001
  92   1.0000      -0.255376        -6.9491
  93   1.0000      -0.253952        -6.9104
  94   1.0000      -0.253069        -6.8863
  95   1.0000      -0.250047        -6.8041
  96   1.0000      -0.248993        -6.7754
  97   1.0000      -0.248124        -6.7518
  98   1.0000      -0.246856        -6.7173
  99   1.0000      -0.245240        -6.6733
 100   1.0000      -0.244591        -6.6557
 101   1.0000      -0.240406        -6.5418
 102   1.0000      -0.238197        -6.4817
 103   1.0000      -0.234014        -6.3678
 104   1.0000      -0.233218        -6.3462
 105   1.0000      -0.229919        -6.2564
 106   1.0000      -0.223557        -6.0833
 107   1.0000      -0.219137        -5.9630
 108   1.0000      -0.206365        -5.6155
 109   0.0000      -0.178889        -4.8678
 110   0.0000      -0.168636        -4.5888
 111   0.0000      -0.133531        -3.6336
 112   0.0000      -0.128133        -3.4867
 113   0.0000      -0.123657        -3.3649

                 SPIN DOWN ORBITALS
  NO   OCC          E(Eh)            E(eV)
   0   1.0000    -234.200548     -6372.9209
   1   1.0000     -26.835246      -730.2242
   2   1.0000     -22.999730      -625.8545
   3   1.0000     -22.999547      -625.8495
   4   1.0000     -22.998207      -625.8130
   5   1.0000      -4.027445      -109.5923
   6   1.0000      -4.026850      -109.5762
   7   1.0000      -4.023947      -109.4972
   8   1.0000      -4.021451      -109.4293
   9   1.0000      -4.020476      -109.4027
  10   1.0000      -4.019893      -109.3869
  11   1.0000      -4.017434      -109.3199
  12   1.0000      -4.016171      -109.2856
  13   1.0000      -4.013675      -109.2176
  14   1.0000      -4.011505      -109.1586
  15   1.0000      -2.948719       -80.2387
  16   1.0000      -2.244803       -61.0842
  17   1.0000      -2.244655       -61.0802
  18   1.0000      -2.242556       -61.0231
  19   1.0000      -2.240342       -60.9628
  20   1.0000      -2.239393       -60.9370
  21   1.0000      -2.238991       -60.9260
  22   1.0000      -2.238723       -60.9187
  23   1.0000      -2.237549       -60.8868
  24   1.0000      -2.236518       -60.8588
  25   1.0000      -2.236483       -60.8578
  26   1.0000      -2.236142       -60.8485
  27   1.0000      -2.235771       -60.8384
  28   1.0000      -2.234358       -60.8000
  29   1.0000      -2.234021       -60.7908
  30   1.0000      -2.233287       -60.7708
  31   1.0000      -2.232451       -60.7481
  32   1.0000      -2.231518       -60.7227
  33   1.0000      -2.231078       -60.7107
  34   1.0000      -2.229521       -60.6684
  35   1.0000      -2.228776       -60.6481
  36   1.0000      -2.228606       -60.6434
  37   1.0000      -2.228372       -60.6371
  38   1.0000      -2.228341       -60.6362
  39   1.0000      -2.226931       -60.5979
  40   1.0000      -2.226438       -60.5845
  41   1.0000      -2.225928       -60.5706
  42   1.0000      -2.223026       -60.4916
  43   1.0000      -2.222949       -60.4895
  44   1.0000      -2.222181       -60.4686
  45   1.0000      -2.221655       -60.4543
  46   1.0000      -1.855778       -50.4983
  47   1.0000      -1.855270       -50.4845
  48   1.0000      -1.851011       -50.3686
  49   1.0000      -0.403048       -10.9675
  50   1.0000      -0.372267       -10.1299
  51   1.0000      -0.365647        -9.9497
  52   1.0000      -0.362405        -9.8615
  53   1.0000      -0.356031        -9.6881
  54   1.0000      -0.354427        -9.6444
  55   1.0000      -0.350629        -9.5411
  56   1.0000      -0.341817        -9.3013
  57   1.0000      -0.339162        -9.2291
  58   1.0000      -0.334098        -9.0913
  59   1.0000      -0.332537        -9.0488
  60   1.0000      -0.331369        -9.0170
  61   1.0000      -0.329771        -8.9735
  62   1.0000      -0.323612        -8.8059
  63   1.0000      -0.322839        -8.7849
  64   1.0000      -0.317365        -8.6359
  65   1.0000      -0.312781        -8.5112
  66   1.0000      -0.312361        -8.4998
  67   1.0000      -0.307661        -8.3719
  68   1.0000      -0.305796        -8.3211
  69   1.0000      -0.303297        -8.2531
  70   1.0000      -0.298694        -8.1279
  71   1.0000      -0.295810        -8.0494
  72   1.0000      -0.293861        -7.9964
  73   1.0000      -0.292479        -7.9587
  74   1.0000      -0.287910        -7.8344
  75   1.0000      -0.286883        -7.8065
  76   1.0000      -0.282584        -7.6895
  77   1.0000      -0.281973        -7.6729
  78   1.0000      -0.279264        -7.5992
  79   1.0000      -0.277260        -7.5446
  80   1.0000      -0.275780        -7.5044
  81   1.0000      -0.274879        -7.4798
  82   1.0000      -0.272533        -7.4160
  83   1.0000      -0.270238        -7.3535
  84   1.0000      -0.269540        -7.3346
  85   1.0000      -0.267994        -7.2925
  86   1.0000      -0.266809        -7.2602
  87   1.0000      -0.265048        -7.2123
  88   1.0000      -0.264557        -7.1990
  89   1.0000      -0.261361        -7.1120
  90   1.0000      -0.260873        -7.0987
  91   1.0000      -0.257407        -7.0044
  92   1.0000      -0.255604        -6.9553
  93   1.0000      -0.253520        -6.8986
  94   1.0000      -0.251678        -6.8485
  95   1.0000      -0.249784        -6.7970
  96   1.0000      -0.249351        -6.7852
  97   1.0000      -0.246786        -6.7154
  98   1.0000      -0.244684        -6.6582
  99   1.0000      -0.242000        -6.5852
 100   1.0000      -0.236375        -6.4321
 101   1.0000      -0.233608        -6.3568
 102   1.0000      -0.225392        -6.1332
 103   1.0000      -0.213615        -5.8128
 104   1.0000      -0.197331        -5.3697
 105   1.0000      -0.190908        -5.1949
 106   0.0000      -0.145154        -3.9498
 107   0.0000      -0.141944        -3.8625
 108   0.0000      -0.135161        -3.6779
 109   0.0000      -0.127184        -3.4609
 110   0.0000      -0.124275        -3.3817

MULLIKEN ATOMIC CHARGES AND SPIN POPULATIONS
--------------------------------------------
   0 Au:    0.080677   -0.175314
   1 Au:    0.034022    0.025167
   2 Au:    0.181596   -0.084118
   3 Au:    0.253105   -0.177151
   4 Au:    0.333675   -0.012549
   5 Au:    0.095298   -0.138993
   6 Au:    0.229928   -0.072844
   7 Au:    0.144759   -0.162962
   8 Au:    0.141817   -0.095241
   9 Au:    0.135201   -0.121636
  10 Mn:   -1.630079    4.015641
Sum of atomic charges         :   -0.0000000

LOEWDIN ATOMIC CHARGES AND SPIN POPULATIONS
-------------------------------------------
   0 Au:   -0.056348   -0.106103
   1 Au:    0.015030   -0.011926
   2 Au:    0.116277   -0.130244
   3 Au:    0.132095   -0.138230
   4 Au:    0.085910   -0.040910
   5 Au:   -0.027804   -0.106580
   6 Au:    0.040356   -0.102516
   7 Au:    0.030446   -0.096552
   8 Au:    0.023767   -0.065057
   9 Au:    0.069325   -0.082401
  10 Mn:   -0.429053    3.880518

  Mayer bond orders larger than 0.100000
B(  0-Au,  1-Au) :   0.1862 B(  0-Au,  2-Au) :   0.3523 B(  0-Au,  3-Au) :   0.1699
B(  0-Au,  4-Au) :   0.4408 B(  0-Au,  5-Au) :   0.1099 B(  0-Au, 10-Mn) :   0.4877
B(  1-Au,  4-Au) :   0.3374 B(  1-Au,  5-Au) :   0.2115 B(  1-Au,  8-Au) :   0.4944
B(  1-Au, 10-Mn) :   0.4395 B(  2-Au,  7-Au) :   0.2816 B(  2-Au, 10-Mn) :   0.6404
B(  3-Au,  5-Au) :   0.2222 B(  3-Au, 10-Mn) :   0.6800 B(  4-Au,  5-Au) :   0.3214
B(  4-Au,  6-Au) :   0.1115 B(  5-Au,  9-Au) :   0.3573 B(  5-Au, 10-Mn) :   0.5458
B(  6-Au,  7-Au) :   0.3924 B(  6-Au,  8-Au) :   0.2784 B(  6-Au,  9-Au) :   0.3393
B(  6-Au, 10-Mn) :   0.1513 B(  7-Au,  8-Au) :   0.1144 B(  7-Au, 10-Mn) :   0.5479
B(  8-Au,  9-Au) :   0.1125 B(  8-Au, 10-Mn) :   0.6422 B(  9-Au, 10-Mn) :   0.6259

FINAL SINGLE POINT ENERGY     -2509.024045281586

DIPOLE MOMENT
-------------
                                X             Y             Z
Electronic contribution:    -15.02255     -14.44784      -2.22914
Nuclear contribution   :     14.95069      14.53085       2.12157
                        -----------------------------------------
Total Dipole Moment    :     -0.07186       0.08301      -0.10757
                        -----------------------------------------
Magnitude (a.u.)       :      0.15371
Magnitude (Debye)      :      0.39069

Rotational constants in cm-1:     0.002294     0.001428     0.001256
Rotational constants in MHz :    68.782754    42.796420    37.655536

                             ****ORCA TERMINATED NORMALLY****
TOTAL RUN TIME: 0 days 1 hours 0 minutes 52 seconds 252 msec
