                         Program Version 5.0.3 -  RELEASE  -
|  1> !SC-NEVPT2 def2-TZVP def2-TZVP/C
|  2> !MOREAD RIJCOSX def2/J
|  3> %maxcore 4000
|  4> %moinp "casscf.gbw"
|  5> %pal nprocs 6 end
|  6>
|  7> %casscf
|  8>  mult 6,4
|  9>  bweight 1,1
| 10>  nroots 1,24
| 11>  nel 5
| 12>  norb 5
| 13>  ptsettings
| 14>   d4tpre 1e-14 # default = 1e-10
| 15>   d3tpre 1e-14
| 16>  end
| 17>  rel
| 18>    dosoc true
| 19>    gtensor true
| 20>  end
| 21> end
| 22>
| 23>
| 24> *xyzfile 0 6 pbe.xyz
| 25>
| 26>
| 27>                          ****END OF INPUT****

CARTESIAN COORDINATES (ANGSTROEM)
---------------------------------
  Au     5.375438    3.938820    6.302104
  Au     8.228185    6.936406    7.533212
  Au     4.631038    5.177032    4.028374
  Au     6.804650    6.238355    5.444410
  Au     3.957912    6.635825    6.254948
  Au     6.330075    3.484324    8.709481
  Au     4.285340    8.167737    8.344516
  Au     7.868609    5.491503    9.967090
  Au     6.678195    7.847077    9.915840
  Au     5.005860    9.828676   10.331861
  Mn     5.836267    6.003457    8.055276

 Total Charge           Charge          ....    0
 Multiplicity           Mult            ....    6
 Number of Electrons    NEL             ....  215
 Basis Dimension        Dim             ....  445

ORBITAL ENERGIES
----------------

  NO   OCC          E(Eh)            E(eV)
   0   2.0000    -240.546441     -6545.6014
   1   2.0000     -29.124622      -792.5213
   2   2.0000     -24.829521      -675.6456
   3   2.0000     -24.829291      -675.6393
   4   2.0000     -24.828755      -675.6248
   5   2.0000      -4.717986      -128.3829
   6   2.0000      -4.714242      -128.2810
   7   2.0000      -4.712259      -128.2271
   8   2.0000      -4.711803      -128.2147
   9   2.0000      -4.706593      -128.0729
  10   2.0000      -4.705580      -128.0454
  11   2.0000      -4.704757      -128.0229
  12   2.0000      -4.704710      -128.0217
  13   2.0000      -4.703587      -127.9911
  14   2.0000      -4.690750      -127.6418
  15   2.0000      -3.829613      -104.2091
  16   2.0000      -2.759928       -75.1015
  17   2.0000      -2.757304       -75.0301
  18   2.0000      -2.755534       -74.9819
  19   2.0000      -2.750800       -74.8531
  20   2.0000      -2.750321       -74.8400
  21   2.0000      -2.749748       -74.8244
  22   2.0000      -2.748884       -74.8009
  23   2.0000      -2.748518       -74.7910
  24   2.0000      -2.748000       -74.7769
  25   2.0000      -2.747355       -74.7593
  26   2.0000      -2.746511       -74.7364
  27   2.0000      -2.744617       -74.6848
  28   2.0000      -2.744324       -74.6769
  29   2.0000      -2.743363       -74.6507
  30   2.0000      -2.742535       -74.6282
  31   2.0000      -2.742194       -74.6189
  32   2.0000      -2.741628       -74.6035
  33   2.0000      -2.740685       -74.5778
  34   2.0000      -2.740340       -74.5684
  35   2.0000      -2.739705       -74.5512
  36   2.0000      -2.739344       -74.5413
  37   2.0000      -2.737569       -74.4930
  38   2.0000      -2.736804       -74.4722
  39   2.0000      -2.735959       -74.4492
  40   2.0000      -2.735316       -74.4317
  41   2.0000      -2.735075       -74.4252
  42   2.0000      -2.733738       -74.3888
  43   2.0000      -2.727885       -74.2295
  44   2.0000      -2.725088       -74.1534
  45   2.0000      -2.722249       -74.0761
  46   2.0000      -2.497834       -67.9695
  47   2.0000      -2.496586       -67.9356
  48   2.0000      -2.495976       -67.9190
  49   2.0000      -0.559413       -15.2224
  50   2.0000      -0.556057       -15.1311
  51   2.0000      -0.549358       -14.9488
  52   2.0000      -0.546232       -14.8637
  53   2.0000      -0.542976       -14.7751
  54   2.0000      -0.534069       -14.5328
  55   2.0000      -0.531739       -14.4694
  56   2.0000      -0.526187       -14.3183
  57   2.0000      -0.525044       -14.2872
  58   2.0000      -0.522970       -14.2307
  59   2.0000      -0.515261       -14.0210
  60   2.0000      -0.512703       -13.9514
  61   2.0000      -0.511567       -13.9205
  62   2.0000      -0.504669       -13.7327
  63   2.0000      -0.501077       -13.6350
  64   2.0000      -0.498494       -13.5647
  65   2.0000      -0.496721       -13.5165
  66   2.0000      -0.493055       -13.4167
  67   2.0000      -0.492132       -13.3916
  68   2.0000      -0.490232       -13.3399
  69   2.0000      -0.482470       -13.1287
  70   2.0000      -0.476954       -12.9786
  71   2.0000      -0.473692       -12.8898
  72   2.0000      -0.471989       -12.8435
  73   2.0000      -0.468838       -12.7577
  74   2.0000      -0.468158       -12.7392
  75   2.0000      -0.465651       -12.6710
  76   2.0000      -0.460024       -12.5179
  77   2.0000      -0.458044       -12.4640
  78   2.0000      -0.455556       -12.3963
  79   2.0000      -0.453463       -12.3393
  80   2.0000      -0.451831       -12.2950
  81   2.0000      -0.449885       -12.2420
  82   2.0000      -0.448931       -12.2160
  83   2.0000      -0.447333       -12.1725
  84   2.0000      -0.446579       -12.1520
  85   2.0000      -0.445021       -12.1096
  86   2.0000      -0.443497       -12.0682
  87   2.0000      -0.438015       -11.9190
  88   2.0000      -0.435441       -11.8490
  89   2.0000      -0.433366       -11.7925
  90   2.0000      -0.429016       -11.6741
  91   2.0000      -0.427724       -11.6390
  92   2.0000      -0.425381       -11.5752
  93   2.0000      -0.423422       -11.5219
  94   2.0000      -0.420016       -11.4292
  95   2.0000      -0.415244       -11.2994
  96   2.0000      -0.411282       -11.1916
  97   2.0000      -0.402894       -10.9633
  98   2.0000      -0.397251       -10.8097
  99   2.0000      -0.384041       -10.4503
 100   2.0000      -0.360919        -9.8211
 101   2.0000      -0.332505        -9.0479
 102   2.0000      -0.286104        -7.7853
 103   2.0000      -0.253515        -6.8985
 104   2.0000      -0.239561        -6.5188
 105   1.0000      -0.148467        -4.0400
 106   1.0000      -0.151963        -4.1351
 107   1.0000      -0.144564        -3.9338
 108   1.0000      -0.147260        -4.0071
 109   1.0000      -0.146131        -3.9764
 110   0.0000      -0.029209        -0.7948
 111   0.0000      -0.005691        -0.1549
 112   0.0000       0.003261         0.0887
 113   0.0000       0.011678         0.3178
 114   0.0000       0.021731         0.5913

MULLIKEN ATOMIC CHARGES AND SPIN DENSITIES
------------------------------------------
   0 Au:   -0.059129    0.008617
   1 Au:    0.182907    0.011561
   2 Au:    0.362880    0.003433
   3 Au:   -0.112017    0.008493
   4 Au:    0.139985    0.010570
   5 Au:    0.182947    0.011608
   6 Au:   -0.276578    0.010678
   7 Au:    0.279388    0.007518
   8 Au:   -0.389008    0.009559
   9 Au:    0.417806    0.002794
  10 Mn:   -0.729180    3.915169
Sum of atomic charges       :    0.0000000

LOEWDIN ATOMIC CHARGES AND SPIN DENSITIES
-----------------------------------------
   0 Au:   -0.082655    0.013219
   1 Au:    0.021568    0.016521
   2 Au:    0.148783    0.004238
   3 Au:   -0.086154    0.011974
   4 Au:   -0.062404    0.015556
   5 Au:    0.085249    0.016447
   6 Au:   -0.083071    0.015494
   7 Au:    0.060060    0.011081
   8 Au:   -0.153062    0.013798
   9 Au:    0.126556    0.003678
  10 Mn:    0.025132    3.877995

  Mayer bond orders larger than 0.100000
B(  0-Au,  2-Au) :   0.4120 B(  0-Au,  3-Au) :   0.2584 B(  0-Au,  4-Au) :   0.1387
B(  0-Au,  5-Au) :   0.5337 B(  0-Au, 10-Mn) :   0.3996 B(  1-Au,  3-Au) :   0.6243
B(  1-Au, 10-Mn) :   0.4400 B(  2-Au,  3-Au) :   0.2839 B(  2-Au,  4-Au) :   0.2431
B(  3-Au,  4-Au) :   0.1140 B(  3-Au, 10-Mn) :   0.3671 B(  4-Au,  6-Au) :   0.4864
B(  4-Au, 10-Mn) :   0.4565 B(  5-Au, 10-Mn) :   0.5187 B(  6-Au,  8-Au) :   0.3852
B(  6-Au,  9-Au) :   0.4002 B(  6-Au, 10-Mn) :   0.6057 B(  7-Au,  8-Au) :   0.5658
B(  7-Au, 10-Mn) :   0.3606 B(  8-Au,  9-Au) :   0.5553 B(  8-Au, 10-Mn) :   0.3772

FINAL SINGLE POINT ENERGY     -2502.907397948792

DIPOLE MOMENT
-------------
                                X             Y             Z
Electronic contribution:      3.09203      13.03378     -13.43830
Nuclear contribution   :     -2.90696     -13.44115      13.47643
                        -----------------------------------------
Total Dipole Moment    :      0.18506      -0.40737       0.03813
                        -----------------------------------------
Magnitude (a.u.)       :      0.44906
Magnitude (Debye)      :      1.14142

Rotational constants in cm-1:     0.002112     0.001296     0.001018
Rotational constants in MHz :    63.302758    38.851175    30.531471

                             ****ORCA TERMINATED NORMALLY****
TOTAL RUN TIME: 0 days 0 hours 40 minutes 20 seconds 364 msec
