                         Program Version 5.0.3 -  RELEASE  -
|  1> !RI-B2PLYP def2-TZVP def2-TZVP/C
|  2> !RIJCOSX VERYSLOWCONV
|  3>
|  4> %scf
|  5>   AutoTRAHIter 200
|  6>   maxiter 400
|  7> end
|  8>
|  9>
| 10> %pal nprocs 6 end
| 11>
| 12> *xyzfile 0 6 pbe.xyz
| 13>
| 14> $new_job
| 15>
| 16> !RI-B2PLYP def2-TZVP def2-TZVP/C
| 17> !RIJCOSX VERYSLOWCONV
| 18>
| 19> %scf
| 20>   AutoTRAHIter 200
| 21>   maxiter 400
| 22> end
| 23>
| 24>
| 25> %pal nprocs 6 end
| 26>
| 27> *xyzfile 0 4 pbe.xyz
| 28>
| 29>
| 30>
| 31>
| 32>
| 33>                          ****END OF INPUT****
 Total Charge           Charge          ....    0
 Multiplicity           Mult            ....    6
 Number of Electrons    NEL             ....  291
MP2 TOTAL ENERGY:    -3049.063682172 Eh
FINAL SINGLE POINT ENERGY     -3049.063682172142

CARTESIAN COORDINATES (ANGSTROEM)
---------------------------------
  Au     6.837196    7.615949    9.911880
  Au     4.417591    6.789429    8.723605
  Au    10.287010    8.599494    8.331018
  Au     9.113406    6.231981    9.159394
  Au     8.989385    5.363135    6.490862
  Au     6.678935    5.326158    8.028236
  Au     5.366756    7.042984    6.151227
  Au     6.750025   11.501788    7.099356
  Au     6.554583    9.400975    5.330647
  Au    10.148166    7.733378    5.663347
  Au     9.095706   10.212060    6.345642
  Au     7.662610    6.982862    4.651806
  Au     7.999618    9.956814    9.101612
  Au     5.398829    9.317783    8.144346
  Mn     7.795998    7.845675    7.303413

 Multiplicity           Mult            ....    4
 Number of Electrons    NEL             ....  291
 Basis Dimension        Dim             ....  605

ORBITAL ENERGIES
----------------
                 SPIN UP ORBITALS
  NO   OCC          E(Eh)            E(eV)
   0   1.0000    -237.628307     -6466.1950
   1   1.0000     -28.128433      -765.4136
   2   1.0000     -24.046549      -654.3399
   3   1.0000     -24.046458      -654.3374
   4   1.0000     -24.045958      -654.3238
   5   1.0000      -4.402170      -119.7891
   6   1.0000      -4.402088      -119.7869
   7   1.0000      -4.401978      -119.7839
   8   1.0000      -4.401843      -119.7802
   9   1.0000      -4.399887      -119.7270
  10   1.0000      -4.397852      -119.6716
  11   1.0000      -4.397634      -119.6657
  12   1.0000      -4.397489      -119.6618
  13   1.0000      -4.397243      -119.6551
  14   1.0000      -4.397021      -119.6490
  15   1.0000      -4.393139      -119.5434
  16   1.0000      -4.392957      -119.5384
  17   1.0000      -4.391893      -119.5095
  18   1.0000      -4.391682      -119.5037
  19   1.0000      -3.606631       -98.1414
  20   1.0000      -2.524648       -68.6992
  21   1.0000      -2.523838       -68.6771
  22   1.0000      -2.521622       -68.6168
  23   1.0000      -2.521116       -68.6031
  24   1.0000      -2.520863       -68.5962
  25   1.0000      -2.520786       -68.5941
  26   1.0000      -2.520552       -68.5877
  27   1.0000      -2.519926       -68.5707
  28   1.0000      -2.519767       -68.5664
  29   1.0000      -2.518839       -68.5411
  30   1.0000      -2.518690       -68.5370
  31   1.0000      -2.518316       -68.5269
  32   1.0000      -2.517768       -68.5120
  33   1.0000      -2.517647       -68.5087
  34   1.0000      -2.517077       -68.4931
  35   1.0000      -2.516761       -68.4846
  36   1.0000      -2.516714       -68.4833
  37   1.0000      -2.515853       -68.4598
  38   1.0000      -2.515681       -68.4552
  39   1.0000      -2.515363       -68.4465
  40   1.0000      -2.514802       -68.4312
  41   1.0000      -2.514495       -68.4229
  42   1.0000      -2.514045       -68.4106
  43   1.0000      -2.513731       -68.4021
  44   1.0000      -2.513108       -68.3852
  45   1.0000      -2.513026       -68.3829
  46   1.0000      -2.512468       -68.3677
  47   1.0000      -2.512378       -68.3653
  48   1.0000      -2.511386       -68.3383
  49   1.0000      -2.510930       -68.3259
  50   1.0000      -2.510695       -68.3195
  51   1.0000      -2.510520       -68.3147
  52   1.0000      -2.509971       -68.2998
  53   1.0000      -2.509605       -68.2898
  54   1.0000      -2.509181       -68.2783
  55   1.0000      -2.508875       -68.2700
  56   1.0000      -2.508740       -68.2663
  57   1.0000      -2.508453       -68.2585
  58   1.0000      -2.508282       -68.2538
  59   1.0000      -2.507171       -68.2236
  60   1.0000      -2.506255       -68.1987
  61   1.0000      -2.505176       -68.1693
  62   1.0000      -2.408699       -65.5440
  63   1.0000      -2.408659       -65.5429
  64   1.0000      -2.408043       -65.5262
  65   1.0000      -0.518041       -14.0966
  66   1.0000      -0.517117       -14.0715
  67   1.0000      -0.515591       -14.0299
  68   1.0000      -0.511126       -13.9084
  69   1.0000      -0.510705       -13.8970
  70   1.0000      -0.508670       -13.8416
  71   1.0000      -0.469926       -12.7873
  72   1.0000      -0.468437       -12.7468
  73   1.0000      -0.465208       -12.6590
  74   1.0000      -0.460606       -12.5337
  75   1.0000      -0.458807       -12.4848
  76   1.0000      -0.455172       -12.3858
  77   1.0000      -0.454421       -12.3654
  78   1.0000      -0.454138       -12.3577
  79   1.0000      -0.451086       -12.2747
  80   1.0000      -0.450416       -12.2564
  81   1.0000      -0.446749       -12.1566
  82   1.0000      -0.446499       -12.1499
  83   1.0000      -0.446001       -12.1363
  84   1.0000      -0.440700       -11.9921
  85   1.0000      -0.439787       -11.9672
  86   1.0000      -0.439232       -11.9521
  87   1.0000      -0.437805       -11.9133
  88   1.0000      -0.436615       -11.8809
  89   1.0000      -0.434441       -11.8217
  90   1.0000      -0.433727       -11.8023
  91   1.0000      -0.430409       -11.7120
  92   1.0000      -0.428316       -11.6551
  93   1.0000      -0.427181       -11.6242
  94   1.0000      -0.421238       -11.4625
  95   1.0000      -0.420894       -11.4531
  96   1.0000      -0.416660       -11.3379
  97   1.0000      -0.415419       -11.3041
  98   1.0000      -0.414137       -11.2692
  99   1.0000      -0.411863       -11.2074
 100   1.0000      -0.410786       -11.1781
 101   1.0000      -0.406436       -11.0597
 102   1.0000      -0.403844       -10.9892
 103   1.0000      -0.403049       -10.9675
 104   1.0000      -0.396298       -10.7838
 105   1.0000      -0.396009       -10.7760
 106   1.0000      -0.388267       -10.5653
 107   1.0000      -0.385302       -10.4846
 108   1.0000      -0.380820       -10.3626
 109   1.0000      -0.377291       -10.2666
 110   1.0000      -0.376814       -10.2536
 111   1.0000      -0.376151       -10.2356
 112   1.0000      -0.375335       -10.2134
 113   1.0000      -0.373568       -10.1653
 114   1.0000      -0.371327       -10.1043
 115   1.0000      -0.369980       -10.0677
 116   1.0000      -0.369550       -10.0560
 117   1.0000      -0.367048        -9.9879
 118   1.0000      -0.366132        -9.9630
 119   1.0000      -0.365520        -9.9463
 120   1.0000      -0.363992        -9.9047
 121   1.0000      -0.361838        -9.8461
 122   1.0000      -0.360918        -9.8211
 123   1.0000      -0.356089        -9.6897
 124   1.0000      -0.354754        -9.6533
 125   1.0000      -0.351383        -9.5616
 126   1.0000      -0.350500        -9.5376
 127   1.0000      -0.348892        -9.4938
 128   1.0000      -0.348516        -9.4836
 129   1.0000      -0.346953        -9.4411
 130   1.0000      -0.345832        -9.4106
 131   1.0000      -0.344234        -9.3671
 132   1.0000      -0.343895        -9.3579
 133   1.0000      -0.343360        -9.3433
 134   1.0000      -0.341093        -9.2816
 135   1.0000      -0.339236        -9.2311
 136   1.0000      -0.335906        -9.1405
 137   1.0000      -0.334698        -9.1076
 138   1.0000      -0.332376        -9.0444
 139   1.0000      -0.325370        -8.8538
 140   1.0000      -0.317310        -8.6344
 141   1.0000      -0.316478        -8.6118
 142   1.0000      -0.307542        -8.3686
 143   1.0000      -0.299811        -8.1583
 144   1.0000      -0.241657        -6.5758
 145   1.0000      -0.221715        -6.0332
 146   1.0000      -0.215799        -5.8722
 147   0.0000      -0.120215        -3.2712
 148   0.0000      -0.119931        -3.2635
 149   0.0000      -0.088679        -2.4131
 150   0.0000      -0.059285        -1.6132
 151   0.0000      -0.057604        -1.5675

                 SPIN DOWN ORBITALS
  NO   OCC          E(Eh)            E(eV)
   0   1.0000    -237.626272     -6466.1396
   1   1.0000     -28.027282      -762.6611
   2   1.0000     -23.953564      -651.8096
   3   1.0000     -23.953508      -651.8081
   4   1.0000     -23.953241      -651.8008
   5   1.0000      -4.403180      -119.8166
   6   1.0000      -4.402950      -119.8104
   7   1.0000      -4.402345      -119.7939
   8   1.0000      -4.402152      -119.7886
   9   1.0000      -4.400267      -119.7373
  10   1.0000      -4.398509      -119.6895
  11   1.0000      -4.398295      -119.6837
  12   1.0000      -4.397703      -119.6676
  13   1.0000      -4.397452      -119.6607
  14   1.0000      -4.397261      -119.6556
  15   1.0000      -4.394264      -119.5740
  16   1.0000      -4.394086      -119.5692
  17   1.0000      -4.392136      -119.5161
  18   1.0000      -4.391919      -119.5102
  19   1.0000      -3.322364       -90.4061
  20   1.0000      -2.524149       -68.6856
  21   1.0000      -2.523754       -68.6748
  22   1.0000      -2.521663       -68.6179
  23   1.0000      -2.521582       -68.6157
  24   1.0000      -2.520850       -68.5958
  25   1.0000      -2.520401       -68.5836
  26   1.0000      -2.520129       -68.5762
  27   1.0000      -2.519908       -68.5702
  28   1.0000      -2.519461       -68.5580
  29   1.0000      -2.518812       -68.5404
  30   1.0000      -2.518769       -68.5392
  31   1.0000      -2.518073       -68.5202
  32   1.0000      -2.517830       -68.5136
  33   1.0000      -2.517503       -68.5047
  34   1.0000      -2.517335       -68.5002
  35   1.0000      -2.516701       -68.4829
  36   1.0000      -2.516142       -68.4677
  37   1.0000      -2.516136       -68.4675
  38   1.0000      -2.515605       -68.4531
  39   1.0000      -2.515409       -68.4478
  40   1.0000      -2.515062       -68.4383
  41   1.0000      -2.514268       -68.4167
  42   1.0000      -2.514164       -68.4139
  43   1.0000      -2.513988       -68.4091
  44   1.0000      -2.513886       -68.4063
  45   1.0000      -2.513720       -68.4018
  46   1.0000      -2.512905       -68.3796
  47   1.0000      -2.512768       -68.3759
  48   1.0000      -2.512155       -68.3592
  49   1.0000      -2.512075       -68.3570
  50   1.0000      -2.511614       -68.3445
  51   1.0000      -2.511326       -68.3367
  52   1.0000      -2.510857       -68.3239
  53   1.0000      -2.510401       -68.3115
  54   1.0000      -2.510242       -68.3072
  55   1.0000      -2.510057       -68.3021
  56   1.0000      -2.509360       -68.2832
  57   1.0000      -2.508637       -68.2635
  58   1.0000      -2.508507       -68.2600
  59   1.0000      -2.507391       -68.2296
  60   1.0000      -2.506940       -68.2173
  61   1.0000      -2.505764       -68.1853
  62   1.0000      -2.083433       -56.6931
  63   1.0000      -2.083252       -56.6882
  64   1.0000      -2.082716       -56.6736
  65   1.0000      -0.507018       -13.7967
  66   1.0000      -0.474896       -12.9226
  67   1.0000      -0.473159       -12.8753
  68   1.0000      -0.472371       -12.8539
  69   1.0000      -0.465957       -12.6793
  70   1.0000      -0.464988       -12.6530
  71   1.0000      -0.462454       -12.5840
  72   1.0000      -0.460324       -12.5261
  73   1.0000      -0.458163       -12.4673
  74   1.0000      -0.457996       -12.4627
  75   1.0000      -0.457313       -12.4441
  76   1.0000      -0.455681       -12.3997
  77   1.0000      -0.453146       -12.3307
  78   1.0000      -0.452864       -12.3231
  79   1.0000      -0.448892       -12.2150
  80   1.0000      -0.448775       -12.2118
  81   1.0000      -0.445634       -12.1263
  82   1.0000      -0.444077       -12.0839
  83   1.0000      -0.442986       -12.0543
  84   1.0000      -0.441628       -12.0173
  85   1.0000      -0.441144       -12.0041
  86   1.0000      -0.438033       -11.9195
  87   1.0000      -0.435904       -11.8616
  88   1.0000      -0.433415       -11.7938
  89   1.0000      -0.426868       -11.6157
  90   1.0000      -0.423776       -11.5315
  91   1.0000      -0.419045       -11.4028
  92   1.0000      -0.417442       -11.3592
  93   1.0000      -0.416235       -11.3263
  94   1.0000      -0.414948       -11.2913
  95   1.0000      -0.413669       -11.2565
  96   1.0000      -0.409421       -11.1409
  97   1.0000      -0.409169       -11.1341
  98   1.0000      -0.405283       -11.0283
  99   1.0000      -0.404542       -11.0081
 100   1.0000      -0.400445       -10.8967
 101   1.0000      -0.392761       -10.6876
 102   1.0000      -0.389862       -10.6087
 103   1.0000      -0.388035       -10.5590
 104   1.0000      -0.384971       -10.4756
 105   1.0000      -0.383962       -10.4481
 106   1.0000      -0.381454       -10.3799
 107   1.0000      -0.379887       -10.3373
 108   1.0000      -0.377898       -10.2831
 109   1.0000      -0.376292       -10.2394
 110   1.0000      -0.374971       -10.2035
 111   1.0000      -0.373765       -10.1707
 112   1.0000      -0.371630       -10.1126
 113   1.0000      -0.370432       -10.0800
 114   1.0000      -0.367738       -10.0067
 115   1.0000      -0.365164        -9.9366
 116   1.0000      -0.363572        -9.8933
 117   1.0000      -0.362253        -9.8574
 118   1.0000      -0.357819        -9.7368
 119   1.0000      -0.357357        -9.7242
 120   1.0000      -0.354264        -9.6400
 121   1.0000      -0.352963        -9.6046
 122   1.0000      -0.352668        -9.5966
 123   1.0000      -0.351348        -9.5607
 124   1.0000      -0.349110        -9.4998
 125   1.0000      -0.348968        -9.4959
 126   1.0000      -0.346708        -9.4344
 127   1.0000      -0.346367        -9.4251
 128   1.0000      -0.345401        -9.3988
 129   1.0000      -0.343721        -9.3531
 130   1.0000      -0.341062        -9.2808
 131   1.0000      -0.338613        -9.2141
 132   1.0000      -0.336635        -9.1603
 133   1.0000      -0.332634        -9.0514
 134   1.0000      -0.331010        -9.0072
 135   1.0000      -0.324438        -8.8284
 136   1.0000      -0.323535        -8.8038
 137   1.0000      -0.314354        -8.5540
 138   1.0000      -0.307746        -8.3742
 139   1.0000      -0.250896        -6.8272
 140   1.0000      -0.233206        -6.3459
 141   1.0000      -0.229902        -6.2559
 142   1.0000      -0.212586        -5.7848
 143   1.0000      -0.211661        -5.7596
 144   0.0000      -0.090919        -2.4740
 145   0.0000      -0.068039        -1.8514
 146   0.0000      -0.056858        -1.5472
 147   0.0000      -0.049875        -1.3572
 148   0.0000      -0.045365        -1.2344

MULLIKEN ATOMIC CHARGES AND SPIN POPULATIONS
--------------------------------------------
   0 Au:    0.140836   -0.222538
   1 Au:    0.368047    0.032524
   2 Au:    0.259903   -0.170998
   3 Au:    0.261030   -0.174363
   4 Au:    0.207599   -0.030457
   5 Au:    0.085087   -0.062587
   6 Au:    0.090226   -0.152998
   7 Au:    0.365426    0.031576
   8 Au:    0.089478   -0.155353
   9 Au:    0.203304   -0.029213
  10 Au:    0.087678   -0.062504
  11 Au:    0.231417   -0.111108
  12 Au:    0.140128   -0.219414
  13 Au:   -0.212544   -0.127053
  14 Mn:   -2.317616    4.454486
Sum of atomic charges         :    0.0000000

LOEWDIN ATOMIC CHARGES AND SPIN POPULATIONS
-------------------------------------------
   0 Au:    0.004276   -0.129064
   1 Au:    0.099630   -0.064919
   2 Au:    0.064802   -0.164292
   3 Au:    0.065397   -0.165686
   4 Au:    0.029215   -0.071640
   5 Au:   -0.005802   -0.089909
   6 Au:    0.011393   -0.121172
   7 Au:    0.098709   -0.065344
   8 Au:    0.011336   -0.121296
   9 Au:    0.028011   -0.070415
  10 Au:   -0.006131   -0.090348
  11 Au:    0.044960   -0.096164
  12 Au:    0.004326   -0.128414
  13 Au:   -0.051026   -0.091720
  14 Mn:   -0.399095    4.470383

  Mayer bond orders larger than 0.100000
B(  0-Au,  1-Au) :   0.1735 B(  0-Au,  3-Au) :   0.1736 B(  0-Au,  5-Au) :   0.1124
B(  0-Au, 12-Au) :   0.2201 B(  0-Au, 13-Au) :   0.2130 B(  0-Au, 14-Mn) :   0.4418
B(  1-Au,  5-Au) :   0.2641 B(  1-Au,  6-Au) :   0.2467 B(  1-Au, 13-Au) :   0.3244
B(  1-Au, 14-Mn) :   0.1114 B(  2-Au,  3-Au) :   0.1958 B(  2-Au,  9-Au) :   0.1515
B(  2-Au, 10-Au) :   0.1902 B(  2-Au, 12-Au) :   0.1729 B(  2-Au, 14-Mn) :   0.4137
B(  3-Au,  4-Au) :   0.1512 B(  3-Au,  5-Au) :   0.1856 B(  3-Au, 14-Mn) :   0.4169
B(  4-Au,  5-Au) :   0.2277 B(  4-Au,  9-Au) :   0.2524 B(  4-Au, 11-Au) :   0.1949
B(  4-Au, 14-Mn) :   0.3799 B(  5-Au,  6-Au) :   0.1823 B(  5-Au, 14-Mn) :   0.3772
B(  6-Au,  8-Au) :   0.2490 B(  6-Au, 11-Au) :   0.2162 B(  6-Au, 13-Au) :   0.1416
B(  6-Au, 14-Mn) :   0.4323 B(  7-Au,  8-Au) :   0.2478 B(  7-Au, 10-Au) :   0.2643
B(  7-Au, 12-Au) :   0.1725 B(  7-Au, 13-Au) :   0.3258 B(  7-Au, 14-Mn) :   0.1132
B(  8-Au, 10-Au) :   0.1854 B(  8-Au, 11-Au) :   0.2146 B(  8-Au, 13-Au) :   0.1395
B(  8-Au, 14-Mn) :   0.4346 B(  9-Au, 10-Au) :   0.2234 B(  9-Au, 11-Au) :   0.1961
B(  9-Au, 14-Mn) :   0.3816 B( 10-Au, 12-Au) :   0.1113 B( 10-Au, 14-Mn) :   0.3708
B( 11-Au, 14-Mn) :   0.4581 B( 12-Au, 13-Au) :   0.2134 B( 12-Au, 14-Mn) :   0.4456
B( 13-Au, 14-Mn) :   0.3766

MP2 TOTAL ENERGY:    -3049.071317753 Eh
FINAL SINGLE POINT ENERGY     -3049.071317752573

DIPOLE MOMENT
-------------
                                X             Y             Z
Electronic contribution:    -10.14711       5.94963       2.50849
Nuclear contribution   :     10.02253      -5.82799      -2.30791
                        -----------------------------------------
Total Dipole Moment    :     -0.12458       0.12163       0.20059
                        -----------------------------------------
Magnitude (a.u.)       :      0.26561
Magnitude (Debye)      :      0.67513

Rotational constants in cm-1:     0.001111     0.001088     0.000934
Rotational constants in MHz :    33.306490    32.610173    27.998228

                             ****ORCA TERMINATED NORMALLY****
TOTAL RUN TIME: 0 days 1 hours 26 minutes 34 seconds 300 msec
