                         Program Version 5.0.3 -  RELEASE  -
|  1> !PBE def2-TZVP VERYSLOWCONV
|  2> !KDIIS
|  3>
|  4> %scf
|  5>   AutoTRAHIter 200
|  6>   maxiter 400
|  7> end
|  8>
|  9>
| 10> %pal nprocs 6 end
| 11>
| 12> *xyzfile 0 6 pbe.xyz
| 13>
| 14> $new_job
| 15>
| 16> !PBE def2-TZVP VERYSLOWCONV
| 17> !KDIIS
| 18>
| 19> %scf
| 20>   AutoTRAHIter 200
| 21>   maxiter 400
| 22> end
| 23>
| 24>
| 25> %pal nprocs 6 end
| 26>
| 27> *xyzfile 0 4 pbe.xyz
| 28>
| 29>
| 30>
| 31>
| 32>
| 33>                          ****END OF INPUT****
 Total Charge           Charge          ....    0
 Multiplicity           Mult            ....    6
 Number of Electrons    NEL             ....  291
FINAL SINGLE POINT ENERGY     -3052.360810360556

CARTESIAN COORDINATES (ANGSTROEM)
---------------------------------
  Au     6.837196    7.615949    9.911880
  Au     4.417591    6.789429    8.723605
  Au    10.287010    8.599494    8.331018
  Au     9.113406    6.231981    9.159394
  Au     8.989385    5.363135    6.490862
  Au     6.678935    5.326158    8.028236
  Au     5.366756    7.042984    6.151227
  Au     6.750025   11.501788    7.099356
  Au     6.554583    9.400975    5.330647
  Au    10.148166    7.733378    5.663347
  Au     9.095706   10.212060    6.345642
  Au     7.662610    6.982862    4.651806
  Au     7.999618    9.956814    9.101612
  Au     5.398829    9.317783    8.144346
  Mn     7.795998    7.845675    7.303413

 Multiplicity           Mult            ....    4
 Number of Electrons    NEL             ....  291
 Basis Dimension        Dim             ....  605

ORBITAL ENERGIES
----------------
                 SPIN UP ORBITALS
  NO   OCC          E(Eh)            E(eV)
   0   1.0000    -234.204722     -6373.0345
   1   1.0000     -26.897702      -731.9237
   2   1.0000     -23.046529      -627.1279
   3   1.0000     -23.046395      -627.1243
   4   1.0000     -23.045874      -627.1101
   5   1.0000      -4.031622      -109.7060
   6   1.0000      -4.031360      -109.6989
   7   1.0000      -4.030987      -109.6887
   8   1.0000      -4.030790      -109.6834
   9   1.0000      -4.029704      -109.6538
  10   1.0000      -4.026634      -109.5703
  11   1.0000      -4.026543      -109.5678
  12   1.0000      -4.026497      -109.5666
  13   1.0000      -4.026477      -109.5660
  14   1.0000      -4.026389      -109.5636
  15   1.0000      -4.023842      -109.4943
  16   1.0000      -4.023823      -109.4938
  17   1.0000      -4.022185      -109.4492
  18   1.0000      -4.021997      -109.4441
  19   1.0000      -3.107077       -84.5479
  20   1.0000      -2.249017       -61.1989
  21   1.0000      -2.247880       -61.1679
  22   1.0000      -2.246813       -61.1389
  23   1.0000      -2.246117       -61.1200
  24   1.0000      -2.245417       -61.1009
  25   1.0000      -2.245322       -61.0983
  26   1.0000      -2.244219       -61.0683
  27   1.0000      -2.243902       -61.0597
  28   1.0000      -2.243845       -61.0581
  29   1.0000      -2.243744       -61.0554
  30   1.0000      -2.243125       -61.0385
  31   1.0000      -2.242846       -61.0310
  32   1.0000      -2.242279       -61.0155
  33   1.0000      -2.242261       -61.0150
  34   1.0000      -2.241927       -61.0059
  35   1.0000      -2.241108       -60.9837
  36   1.0000      -2.240672       -60.9718
  37   1.0000      -2.240477       -60.9665
  38   1.0000      -2.240352       -60.9631
  39   1.0000      -2.240224       -60.9596
  40   1.0000      -2.240123       -60.9568
  41   1.0000      -2.238942       -60.9247
  42   1.0000      -2.238793       -60.9207
  43   1.0000      -2.238676       -60.9175
  44   1.0000      -2.238327       -60.9080
  45   1.0000      -2.238096       -60.9017
  46   1.0000      -2.237468       -60.8846
  47   1.0000      -2.237314       -60.8804
  48   1.0000      -2.237236       -60.8783
  49   1.0000      -2.237083       -60.8741
  50   1.0000      -2.236837       -60.8674
  51   1.0000      -2.236461       -60.8572
  52   1.0000      -2.236336       -60.8538
  53   1.0000      -2.236147       -60.8486
  54   1.0000      -2.236006       -60.8448
  55   1.0000      -2.235501       -60.8311
  56   1.0000      -2.235419       -60.8288
  57   1.0000      -2.234995       -60.8173
  58   1.0000      -2.234844       -60.8132
  59   1.0000      -2.234198       -60.7956
  60   1.0000      -2.232721       -60.7554
  61   1.0000      -2.231799       -60.7303
  62   1.0000      -2.010070       -54.6968
  63   1.0000      -2.010023       -54.6955
  64   1.0000      -2.008946       -54.6662
  65   1.0000      -0.432953       -11.7813
  66   1.0000      -0.387152       -10.5349
  67   1.0000      -0.386955       -10.5296
  68   1.0000      -0.384740       -10.4693
  69   1.0000      -0.374198       -10.1824
  70   1.0000      -0.373226       -10.1560
  71   1.0000      -0.370608       -10.0848
  72   1.0000      -0.364831        -9.9275
  73   1.0000      -0.361277        -9.8308
  74   1.0000      -0.360648        -9.8137
  75   1.0000      -0.357106        -9.7174
  76   1.0000      -0.353747        -9.6259
  77   1.0000      -0.352709        -9.5977
  78   1.0000      -0.351671        -9.5695
  79   1.0000      -0.348089        -9.4720
  80   1.0000      -0.347511        -9.4563
  81   1.0000      -0.342461        -9.3188
  82   1.0000      -0.340913        -9.2767
  83   1.0000      -0.340155        -9.2561
  84   1.0000      -0.337713        -9.1896
  85   1.0000      -0.336636        -9.1603
  86   1.0000      -0.335904        -9.1404
  87   1.0000      -0.334942        -9.1142
  88   1.0000      -0.330840        -9.0026
  89   1.0000      -0.329879        -8.9765
  90   1.0000      -0.324787        -8.8379
  91   1.0000      -0.318757        -8.6738
  92   1.0000      -0.317640        -8.6434
  93   1.0000      -0.316609        -8.6154
  94   1.0000      -0.315789        -8.5931
  95   1.0000      -0.314727        -8.5642
  96   1.0000      -0.313426        -8.5287
  97   1.0000      -0.310139        -8.4393
  98   1.0000      -0.307239        -8.3604
  99   1.0000      -0.306392        -8.3373
 100   1.0000      -0.303345        -8.2544
 101   1.0000      -0.299639        -8.1536
 102   1.0000      -0.299127        -8.1397
 103   1.0000      -0.294898        -8.0246
 104   1.0000      -0.294194        -8.0054
 105   1.0000      -0.292144        -7.9496
 106   1.0000      -0.289947        -7.8899
 107   1.0000      -0.289661        -7.8821
 108   1.0000      -0.284646        -7.7456
 109   1.0000      -0.281609        -7.6630
 110   1.0000      -0.280138        -7.6230
 111   1.0000      -0.277645        -7.5551
 112   1.0000      -0.275185        -7.4882
 113   1.0000      -0.275002        -7.4832
 114   1.0000      -0.272406        -7.4126
 115   1.0000      -0.269528        -7.3342
 116   1.0000      -0.267963        -7.2916
 117   1.0000      -0.266993        -7.2653
 118   1.0000      -0.263293        -7.1646
 119   1.0000      -0.262901        -7.1539
 120   1.0000      -0.261252        -7.1090
 121   1.0000      -0.259054        -7.0492
 122   1.0000      -0.258998        -7.0477
 123   1.0000      -0.258778        -7.0417
 124   1.0000      -0.257717        -7.0128
 125   1.0000      -0.255448        -6.9511
 126   1.0000      -0.255050        -6.9403
 127   1.0000      -0.253790        -6.9060
 128   1.0000      -0.253435        -6.8963
 129   1.0000      -0.252337        -6.8664
 130   1.0000      -0.251407        -6.8411
 131   1.0000      -0.250693        -6.8217
 132   1.0000      -0.250048        -6.8041
 133   1.0000      -0.249039        -6.7767
 134   1.0000      -0.248606        -6.7649
 135   1.0000      -0.246563        -6.7093
 136   1.0000      -0.246263        -6.7012
 137   1.0000      -0.244353        -6.6492
 138   1.0000      -0.243895        -6.6367
 139   1.0000      -0.242622        -6.6021
 140   1.0000      -0.241862        -6.5814
 141   1.0000      -0.240698        -6.5497
 142   1.0000      -0.239667        -6.5217
 143   1.0000      -0.224919        -6.1204
 144   1.0000      -0.214773        -5.8443
 145   1.0000      -0.202512        -5.5106
 146   1.0000      -0.198101        -5.3906
 147   0.0000      -0.183310        -4.9881
 148   0.0000      -0.182694        -4.9714
 149   0.0000      -0.150553        -4.0968
 150   0.0000      -0.129261        -3.5174
 151   0.0000      -0.119118        -3.2414

                 SPIN DOWN ORBITALS
  NO   OCC          E(Eh)            E(eV)
   0   1.0000    -234.204026     -6373.0156
   1   1.0000     -26.831759      -730.1293
   2   1.0000     -22.996697      -625.7719
   3   1.0000     -22.996257      -625.7600
   4   1.0000     -22.995630      -625.7429
   5   1.0000      -4.031880      -109.7130
   6   1.0000      -4.031629      -109.7062
   7   1.0000      -4.030885      -109.6859
   8   1.0000      -4.030694      -109.6808
   9   1.0000      -4.029757      -109.6553
  10   1.0000      -4.026872      -109.5768
  11   1.0000      -4.026713      -109.5724
  12   1.0000      -4.026537      -109.5677
  13   1.0000      -4.026454      -109.5654
  14   1.0000      -4.026451      -109.5653
  15   1.0000      -4.024962      -109.5248
  16   1.0000      -4.024944      -109.5243
  17   1.0000      -4.022276      -109.4517
  18   1.0000      -4.022077      -109.4463
  19   1.0000      -2.945374       -80.1477
  20   1.0000      -2.248794       -61.1928
  21   1.0000      -2.247943       -61.1696
  22   1.0000      -2.246932       -61.1421
  23   1.0000      -2.245976       -61.1161
  24   1.0000      -2.245897       -61.1140
  25   1.0000      -2.245368       -61.0996
  26   1.0000      -2.244115       -61.0655
  27   1.0000      -2.244001       -61.0624
  28   1.0000      -2.243847       -61.0582
  29   1.0000      -2.243461       -61.0477
  30   1.0000      -2.243000       -61.0351
  31   1.0000      -2.242862       -61.0314
  32   1.0000      -2.242586       -61.0239
  33   1.0000      -2.242397       -61.0187
  34   1.0000      -2.241777       -61.0018
  35   1.0000      -2.240982       -60.9802
  36   1.0000      -2.240728       -60.9733
  37   1.0000      -2.240618       -60.9703
  38   1.0000      -2.240539       -60.9682
  39   1.0000      -2.240370       -60.9636
  40   1.0000      -2.240029       -60.9543
  41   1.0000      -2.239205       -60.9319
  42   1.0000      -2.238953       -60.9250
  43   1.0000      -2.238874       -60.9229
  44   1.0000      -2.238744       -60.9193
  45   1.0000      -2.238534       -60.9136
  46   1.0000      -2.238356       -60.9088
  47   1.0000      -2.238224       -60.9052
  48   1.0000      -2.237717       -60.8914
  49   1.0000      -2.237360       -60.8817
  50   1.0000      -2.237278       -60.8794
  51   1.0000      -2.237053       -60.8733
  52   1.0000      -2.236904       -60.8693
  53   1.0000      -2.236806       -60.8666
  54   1.0000      -2.236670       -60.8629
  55   1.0000      -2.236413       -60.8559
  56   1.0000      -2.236379       -60.8550
  57   1.0000      -2.234909       -60.8150
  58   1.0000      -2.234749       -60.8106
  59   1.0000      -2.234075       -60.7923
  60   1.0000      -2.233263       -60.7702
  61   1.0000      -2.232289       -60.7437
  62   1.0000      -1.852215       -50.4013
  63   1.0000      -1.850876       -50.3649
  64   1.0000      -1.849698       -50.3328
  65   1.0000      -0.427521       -11.6334
  66   1.0000      -0.386994       -10.5306
  67   1.0000      -0.386159       -10.5079
  68   1.0000      -0.384304       -10.4575
  69   1.0000      -0.370146       -10.0722
  70   1.0000      -0.367676       -10.0050
  71   1.0000      -0.366203        -9.9649
  72   1.0000      -0.362774        -9.8716
  73   1.0000      -0.359887        -9.7930
  74   1.0000      -0.358538        -9.7563
  75   1.0000      -0.354751        -9.6533
  76   1.0000      -0.352426        -9.5900
  77   1.0000      -0.350832        -9.5466
  78   1.0000      -0.350725        -9.5437
  79   1.0000      -0.347595        -9.4585
  80   1.0000      -0.346003        -9.4152
  81   1.0000      -0.342591        -9.3224
  82   1.0000      -0.341228        -9.2853
  83   1.0000      -0.340513        -9.2658
  84   1.0000      -0.339152        -9.2288
  85   1.0000      -0.338330        -9.2064
  86   1.0000      -0.336622        -9.1600
  87   1.0000      -0.335680        -9.1343
  88   1.0000      -0.331875        -9.0308
  89   1.0000      -0.329776        -8.9737
  90   1.0000      -0.326043        -8.8721
  91   1.0000      -0.318077        -8.6553
  92   1.0000      -0.315933        -8.5970
  93   1.0000      -0.315822        -8.5940
  94   1.0000      -0.315623        -8.5885
  95   1.0000      -0.313799        -8.5389
  96   1.0000      -0.309899        -8.4328
  97   1.0000      -0.309601        -8.4247
  98   1.0000      -0.306121        -8.3300
  99   1.0000      -0.305791        -8.3210
 100   1.0000      -0.301249        -8.1974
 101   1.0000      -0.296134        -8.0582
 102   1.0000      -0.293009        -7.9732
 103   1.0000      -0.291697        -7.9375
 104   1.0000      -0.291423        -7.9300
 105   1.0000      -0.287472        -7.8225
 106   1.0000      -0.286776        -7.8036
 107   1.0000      -0.286048        -7.7838
 108   1.0000      -0.284463        -7.7406
 109   1.0000      -0.280788        -7.6406
 110   1.0000      -0.280349        -7.6287
 111   1.0000      -0.277805        -7.5595
 112   1.0000      -0.275352        -7.4927
 113   1.0000      -0.275233        -7.4895
 114   1.0000      -0.272103        -7.4043
 115   1.0000      -0.269930        -7.3452
 116   1.0000      -0.268437        -7.3045
 117   1.0000      -0.267553        -7.2805
 118   1.0000      -0.263857        -7.1799
 119   1.0000      -0.263526        -7.1709
 120   1.0000      -0.260866        -7.0985
 121   1.0000      -0.260079        -7.0771
 122   1.0000      -0.259085        -7.0501
 123   1.0000      -0.258852        -7.0437
 124   1.0000      -0.257107        -6.9962
 125   1.0000      -0.255707        -6.9581
 126   1.0000      -0.255029        -6.9397
 127   1.0000      -0.254577        -6.9274
 128   1.0000      -0.253069        -6.8863
 129   1.0000      -0.252522        -6.8715
 130   1.0000      -0.251812        -6.8522
 131   1.0000      -0.250693        -6.8217
 132   1.0000      -0.249587        -6.7916
 133   1.0000      -0.248539        -6.7631
 134   1.0000      -0.246681        -6.7125
 135   1.0000      -0.244998        -6.6667
 136   1.0000      -0.244217        -6.6455
 137   1.0000      -0.242883        -6.6092
 138   1.0000      -0.225812        -6.1447
 139   1.0000      -0.223004        -6.0682
 140   1.0000      -0.212596        -5.7850
 141   1.0000      -0.209809        -5.7092
 142   1.0000      -0.196266        -5.3407
 143   1.0000      -0.196039        -5.3345
 144   0.0000      -0.152765        -4.1570
 145   0.0000      -0.138341        -3.7644
 146   0.0000      -0.129042        -3.5114
 147   0.0000      -0.128901        -3.5076
 148   0.0000      -0.126896        -3.4530

MULLIKEN ATOMIC CHARGES AND SPIN POPULATIONS
--------------------------------------------
   0 Au:    0.164271   -0.156845
   1 Au:    0.399283   -0.019271
   2 Au:    0.302540   -0.117629
   3 Au:    0.303910   -0.119914
   4 Au:    0.239524   -0.010852
   5 Au:    0.113604   -0.027053
   6 Au:    0.126257   -0.102241
   7 Au:    0.396719   -0.020163
   8 Au:    0.125781   -0.105931
   9 Au:    0.234001   -0.007285
  10 Au:    0.116346   -0.029271
  11 Au:    0.245471   -0.069447
  12 Au:    0.164846   -0.154237
  13 Au:   -0.194342   -0.056226
  14 Mn:   -2.738210    3.996365
Sum of atomic charges         :   -0.0000000

LOEWDIN ATOMIC CHARGES AND SPIN POPULATIONS
-------------------------------------------
   0 Au:    0.028687   -0.093991
   1 Au:    0.093139   -0.073464
   2 Au:    0.079231   -0.119725
   3 Au:    0.080242   -0.121071
   4 Au:    0.046937   -0.047812
   5 Au:    0.012571   -0.052496
   6 Au:    0.031071   -0.079463
   7 Au:    0.092774   -0.074399
   8 Au:    0.031402   -0.080387
   9 Au:    0.045479   -0.045620
  10 Au:    0.011837   -0.054148
  11 Au:    0.061539   -0.064302
  12 Au:    0.029303   -0.093080
  13 Au:   -0.029299   -0.052950
  14 Mn:   -0.614914    4.052908

  Mayer bond orders larger than 0.100000
B(  0-Au,  1-Au) :   0.2189 B(  0-Au,  3-Au) :   0.2211 B(  0-Au,  5-Au) :   0.1356
B(  0-Au, 12-Au) :   0.2525 B(  0-Au, 13-Au) :   0.2264 B(  0-Au, 14-Mn) :   0.4703
B(  1-Au,  5-Au) :   0.2960 B(  1-Au,  6-Au) :   0.2743 B(  1-Au, 13-Au) :   0.3721
B(  2-Au,  3-Au) :   0.2366 B(  2-Au,  9-Au) :   0.1834 B(  2-Au, 10-Au) :   0.2034
B(  2-Au, 12-Au) :   0.2206 B(  2-Au, 14-Mn) :   0.4321 B(  3-Au,  4-Au) :   0.1839
B(  3-Au,  5-Au) :   0.1973 B(  3-Au, 14-Mn) :   0.4358 B(  4-Au,  5-Au) :   0.2643
B(  4-Au,  9-Au) :   0.2659 B(  4-Au, 11-Au) :   0.2162 B(  4-Au, 14-Mn) :   0.3952
B(  5-Au,  6-Au) :   0.2025 B(  5-Au, 14-Mn) :   0.4088 B(  6-Au,  8-Au) :   0.2569
B(  6-Au, 11-Au) :   0.2444 B(  6-Au, 13-Au) :   0.1548 B(  6-Au, 14-Mn) :   0.4537
B(  7-Au,  8-Au) :   0.2753 B(  7-Au, 10-Au) :   0.2957 B(  7-Au, 12-Au) :   0.2176
B(  7-Au, 13-Au) :   0.3742 B(  7-Au, 14-Mn) :   0.1001 B(  8-Au, 10-Au) :   0.2048
B(  8-Au, 11-Au) :   0.2433 B(  8-Au, 13-Au) :   0.1524 B(  8-Au, 14-Mn) :   0.4565
B(  9-Au, 10-Au) :   0.2594 B(  9-Au, 11-Au) :   0.2182 B(  9-Au, 14-Mn) :   0.3982
B( 10-Au, 12-Au) :   0.1345 B( 10-Au, 14-Mn) :   0.4011 B( 11-Au, 14-Mn) :   0.4726
B( 12-Au, 13-Au) :   0.2252 B( 12-Au, 14-Mn) :   0.4745 B( 13-Au, 14-Mn) :   0.4112

FINAL SINGLE POINT ENERGY     -3052.373111023376

DIPOLE MOMENT
-------------
                                X             Y             Z
Electronic contribution:    -10.14348       5.95267       2.51036
Nuclear contribution   :     10.02253      -5.82799      -2.30791
                        -----------------------------------------
Total Dipole Moment    :     -0.12095       0.12468       0.20245
                        -----------------------------------------
Magnitude (a.u.)       :      0.26676
Magnitude (Debye)      :      0.67805

Rotational constants in cm-1:     0.001111     0.001088     0.000934
Rotational constants in MHz :    33.306490    32.610173    27.998228

                             ****ORCA TERMINATED NORMALLY****
TOTAL RUN TIME: 0 days 0 hours 9 minutes 12 seconds 854 msec
