                         Program Version 5.0.3 -  RELEASE  -
|  1> !R2SCAN def2-TZVP VERYSLOWCONV
|  2> !KDIIS
|  3> %scf
|  4>   AutoTRAHIter 200
|  5>   maxiter 400
|  6> end
|  7>
|  8> %pal nprocs 6 end
|  9>
| 10> *xyzfile 0 6 pbe.xyz
| 11>
| 12> $new_job
| 13>
| 14> !R2SCAN def2-TZVP VERYSLOWCONV
| 15> !KDIIS
| 16> %scf
| 17>   AutoTRAHIter 200
| 18>   maxiter 400
| 19> end
| 20>
| 21>
| 22> %pal nprocs 6 end
| 23>
| 24> *xyzfile 0 4 pbe.xyz
| 25>
| 26>
| 27>
| 28>
| 29>
| 30>                          ****END OF INPUT****
 Total Charge           Charge          ....    0
 Multiplicity           Mult            ....    6
 Number of Electrons    NEL             ....  291
FINAL SINGLE POINT ENERGY     -3052.860527156106

CARTESIAN COORDINATES (ANGSTROEM)
---------------------------------
  Au     6.837196    7.615949    9.911880
  Au     4.417591    6.789429    8.723605
  Au    10.287010    8.599494    8.331018
  Au     9.113406    6.231981    9.159394
  Au     8.989385    5.363135    6.490862
  Au     6.678935    5.326158    8.028236
  Au     5.366756    7.042984    6.151227
  Au     6.750025   11.501788    7.099356
  Au     6.554583    9.400975    5.330647
  Au    10.148166    7.733378    5.663347
  Au     9.095706   10.212060    6.345642
  Au     7.662610    6.982862    4.651806
  Au     7.999618    9.956814    9.101612
  Au     5.398829    9.317783    8.144346
  Mn     7.795998    7.845675    7.303413

 Multiplicity           Mult            ....    4
 Number of Electrons    NEL             ....  291
 Basis Dimension        Dim             ....  605

ORBITAL ENERGIES
----------------
                 SPIN UP ORBITALS
  NO   OCC          E(Eh)            E(eV)
   0   1.0000    -235.047422     -6395.9655
   1   1.0000     -27.223992      -740.8025
   2   1.0000     -23.271049      -633.2374
   3   1.0000     -23.270942      -633.2345
   4   1.0000     -23.270331      -633.2179
   5   1.0000      -4.122458      -112.1778
   6   1.0000      -4.122217      -112.1712
   7   1.0000      -4.122169      -112.1699
   8   1.0000      -4.122003      -112.1654
   9   1.0000      -4.120636      -112.1282
  10   1.0000      -4.117688      -112.0480
  11   1.0000      -4.117671      -112.0475
  12   1.0000      -4.117570      -112.0448
  13   1.0000      -4.117477      -112.0422
  14   1.0000      -4.117376      -112.0395
  15   1.0000      -4.114818      -111.9699
  16   1.0000      -4.114677      -111.9660
  17   1.0000      -4.113002      -111.9205
  18   1.0000      -4.112806      -111.9151
  19   1.0000      -3.246201       -88.3336
  20   1.0000      -2.313057       -62.9415
  21   1.0000      -2.311818       -62.9078
  22   1.0000      -2.310522       -62.8725
  23   1.0000      -2.309906       -62.8557
  24   1.0000      -2.309255       -62.8380
  25   1.0000      -2.309079       -62.8332
  26   1.0000      -2.308320       -62.8126
  27   1.0000      -2.307845       -62.7997
  28   1.0000      -2.307743       -62.7969
  29   1.0000      -2.307535       -62.7912
  30   1.0000      -2.306950       -62.7753
  31   1.0000      -2.306616       -62.7662
  32   1.0000      -2.306344       -62.7588
  33   1.0000      -2.305905       -62.7469
  34   1.0000      -2.305751       -62.7427
  35   1.0000      -2.305074       -62.7243
  36   1.0000      -2.304644       -62.7126
  37   1.0000      -2.304291       -62.7029
  38   1.0000      -2.304173       -62.6997
  39   1.0000      -2.304128       -62.6985
  40   1.0000      -2.304101       -62.6978
  41   1.0000      -2.302868       -62.6642
  42   1.0000      -2.302641       -62.6581
  43   1.0000      -2.302549       -62.6555
  44   1.0000      -2.302039       -62.6417
  45   1.0000      -2.301812       -62.6355
  46   1.0000      -2.301236       -62.6198
  47   1.0000      -2.301089       -62.6158
  48   1.0000      -2.300898       -62.6106
  49   1.0000      -2.300704       -62.6053
  50   1.0000      -2.300503       -62.5999
  51   1.0000      -2.300162       -62.5906
  52   1.0000      -2.300027       -62.5869
  53   1.0000      -2.299755       -62.5795
  54   1.0000      -2.299523       -62.5732
  55   1.0000      -2.299117       -62.5622
  56   1.0000      -2.298937       -62.5572
  57   1.0000      -2.298572       -62.5473
  58   1.0000      -2.298304       -62.5400
  59   1.0000      -2.297759       -62.5252
  60   1.0000      -2.296270       -62.4847
  61   1.0000      -2.295307       -62.4585
  62   1.0000      -2.103256       -57.2325
  63   1.0000      -2.103188       -57.2307
  64   1.0000      -2.101977       -57.1977
  65   1.0000      -0.438472       -11.9314
  66   1.0000      -0.393982       -10.7208
  67   1.0000      -0.392664       -10.6849
  68   1.0000      -0.392218       -10.6728
  69   1.0000      -0.384312       -10.4577
  70   1.0000      -0.383796       -10.4436
  71   1.0000      -0.380996       -10.3674
  72   1.0000      -0.374199       -10.1825
  73   1.0000      -0.372400       -10.1335
  74   1.0000      -0.369645       -10.0586
  75   1.0000      -0.368715       -10.0333
  76   1.0000      -0.363547        -9.8926
  77   1.0000      -0.362348        -9.8600
  78   1.0000      -0.361122        -9.8266
  79   1.0000      -0.357643        -9.7320
  80   1.0000      -0.356978        -9.7139
  81   1.0000      -0.352126        -9.5818
  82   1.0000      -0.350424        -9.5355
  83   1.0000      -0.349714        -9.5162
  84   1.0000      -0.346694        -9.4340
  85   1.0000      -0.345846        -9.4110
  86   1.0000      -0.344872        -9.3845
  87   1.0000      -0.344485        -9.3739
  88   1.0000      -0.340116        -9.2550
  89   1.0000      -0.339208        -9.2303
  90   1.0000      -0.333502        -9.0751
  91   1.0000      -0.330251        -8.9866
  92   1.0000      -0.327979        -8.9248
  93   1.0000      -0.326855        -8.8942
  94   1.0000      -0.325298        -8.8518
  95   1.0000      -0.323952        -8.8152
  96   1.0000      -0.322761        -8.7828
  97   1.0000      -0.320693        -8.7265
  98   1.0000      -0.318353        -8.6628
  99   1.0000      -0.316237        -8.6052
 100   1.0000      -0.312752        -8.5104
 101   1.0000      -0.311032        -8.4636
 102   1.0000      -0.310426        -8.4471
 103   1.0000      -0.304882        -8.2963
 104   1.0000      -0.304512        -8.2862
 105   1.0000      -0.302958        -8.2439
 106   1.0000      -0.298926        -8.1342
 107   1.0000      -0.297939        -8.1073
 108   1.0000      -0.293622        -7.9898
 109   1.0000      -0.290629        -7.9084
 110   1.0000      -0.288639        -7.8543
 111   1.0000      -0.286457        -7.7949
 112   1.0000      -0.284022        -7.7286
 113   1.0000      -0.283663        -7.7189
 114   1.0000      -0.281492        -7.6598
 115   1.0000      -0.278142        -7.5686
 116   1.0000      -0.276472        -7.5232
 117   1.0000      -0.275537        -7.4978
 118   1.0000      -0.273422        -7.4402
 119   1.0000      -0.271739        -7.3944
 120   1.0000      -0.270906        -7.3717
 121   1.0000      -0.268922        -7.3177
 122   1.0000      -0.268209        -7.2983
 123   1.0000      -0.266408        -7.2493
 124   1.0000      -0.266003        -7.2383
 125   1.0000      -0.265864        -7.2345
 126   1.0000      -0.265169        -7.2156
 127   1.0000      -0.263126        -7.1600
 128   1.0000      -0.262566        -7.1448
 129   1.0000      -0.261524        -7.1164
 130   1.0000      -0.261129        -7.1057
 131   1.0000      -0.259384        -7.0582
 132   1.0000      -0.258672        -7.0388
 133   1.0000      -0.257572        -7.0089
 134   1.0000      -0.257175        -6.9981
 135   1.0000      -0.256324        -6.9749
 136   1.0000      -0.256237        -6.9726
 137   1.0000      -0.254570        -6.9272
 138   1.0000      -0.253398        -6.8953
 139   1.0000      -0.251441        -6.8421
 140   1.0000      -0.249473        -6.7885
 141   1.0000      -0.248823        -6.7708
 142   1.0000      -0.247287        -6.7290
 143   1.0000      -0.231358        -6.2956
 144   1.0000      -0.218194        -5.9374
 145   1.0000      -0.204681        -5.5697
 146   1.0000      -0.200157        -5.4465
 147   0.0000      -0.181649        -4.9429
 148   0.0000      -0.181188        -4.9304
 149   0.0000      -0.146675        -3.9912
 150   0.0000      -0.124970        -3.4006
 151   0.0000      -0.113871        -3.0986

                 SPIN DOWN ORBITALS
  NO   OCC          E(Eh)            E(eV)
   0   1.0000    -235.046417     -6395.9382
   1   1.0000     -27.135782      -738.4022
   2   1.0000     -23.203406      -631.3968
   3   1.0000     -23.203212      -631.3915
   4   1.0000     -23.202722      -631.3782
   5   1.0000      -4.123066      -112.1943
   6   1.0000      -4.122837      -112.1881
   7   1.0000      -4.122242      -112.1719
   8   1.0000      -4.122075      -112.1674
   9   1.0000      -4.120860      -112.1343
  10   1.0000      -4.118091      -112.0590
  11   1.0000      -4.117927      -112.0545
  12   1.0000      -4.117774      -112.0503
  13   1.0000      -4.117753      -112.0497
  14   1.0000      -4.117607      -112.0458
  15   1.0000      -4.116073      -112.0041
  16   1.0000      -4.115932      -112.0002
  17   1.0000      -4.113197      -111.9258
  18   1.0000      -4.112991      -111.9202
  19   1.0000      -3.035784       -82.6079
  20   1.0000      -2.313005       -62.9401
  21   1.0000      -2.312033       -62.9136
  22   1.0000      -2.310755       -62.8788
  23   1.0000      -2.309933       -62.8565
  24   1.0000      -2.309919       -62.8561
  25   1.0000      -2.309258       -62.8381
  26   1.0000      -2.308181       -62.8088
  27   1.0000      -2.307962       -62.8028
  28   1.0000      -2.307897       -62.8011
  29   1.0000      -2.307567       -62.7921
  30   1.0000      -2.307005       -62.7768
  31   1.0000      -2.306744       -62.7697
  32   1.0000      -2.306546       -62.7643
  33   1.0000      -2.306501       -62.7631
  34   1.0000      -2.305725       -62.7420
  35   1.0000      -2.305033       -62.7231
  36   1.0000      -2.304608       -62.7116
  37   1.0000      -2.304544       -62.7098
  38   1.0000      -2.304509       -62.7089
  39   1.0000      -2.304292       -62.7030
  40   1.0000      -2.304119       -62.6983
  41   1.0000      -2.303109       -62.6708
  42   1.0000      -2.302898       -62.6650
  43   1.0000      -2.302758       -62.6612
  44   1.0000      -2.302611       -62.6572
  45   1.0000      -2.302378       -62.6509
  46   1.0000      -2.302267       -62.6479
  47   1.0000      -2.302070       -62.6425
  48   1.0000      -2.301554       -62.6285
  49   1.0000      -2.301217       -62.6193
  50   1.0000      -2.301145       -62.6173
  51   1.0000      -2.300868       -62.6098
  52   1.0000      -2.300649       -62.6038
  53   1.0000      -2.300573       -62.6018
  54   1.0000      -2.300445       -62.5983
  55   1.0000      -2.300115       -62.5893
  56   1.0000      -2.300081       -62.5884
  57   1.0000      -2.298477       -62.5447
  58   1.0000      -2.298347       -62.5412
  59   1.0000      -2.297745       -62.5248
  60   1.0000      -2.296817       -62.4996
  61   1.0000      -2.295808       -62.4721
  62   1.0000      -1.894488       -51.5516
  63   1.0000      -1.893764       -51.5320
  64   1.0000      -1.892895       -51.5083
  65   1.0000      -0.433785       -11.8039
  66   1.0000      -0.393195       -10.6994
  67   1.0000      -0.392928       -10.6921
  68   1.0000      -0.392148       -10.6709
  69   1.0000      -0.378966       -10.3122
  70   1.0000      -0.375851       -10.2274
  71   1.0000      -0.374760       -10.1977
  72   1.0000      -0.372251       -10.1295
  73   1.0000      -0.369086       -10.0433
  74   1.0000      -0.367450        -9.9988
  75   1.0000      -0.364461        -9.9175
  76   1.0000      -0.362332        -9.8595
  77   1.0000      -0.360387        -9.8066
  78   1.0000      -0.360246        -9.8028
  79   1.0000      -0.357105        -9.7173
  80   1.0000      -0.355524        -9.6743
  81   1.0000      -0.352404        -9.5894
  82   1.0000      -0.350890        -9.5482
  83   1.0000      -0.349961        -9.5229
  84   1.0000      -0.348654        -9.4874
  85   1.0000      -0.348097        -9.4722
  86   1.0000      -0.346152        -9.4193
  87   1.0000      -0.345391        -9.3986
  88   1.0000      -0.341446        -9.2912
  89   1.0000      -0.339284        -9.2324
  90   1.0000      -0.335269        -9.1231
  91   1.0000      -0.327841        -8.9210
  92   1.0000      -0.325486        -8.8569
  93   1.0000      -0.325174        -8.8484
  94   1.0000      -0.324889        -8.8407
  95   1.0000      -0.323149        -8.7933
  96   1.0000      -0.319140        -8.6842
  97   1.0000      -0.318883        -8.6773
  98   1.0000      -0.315430        -8.5833
  99   1.0000      -0.315156        -8.5758
 100   1.0000      -0.310423        -8.4470
 101   1.0000      -0.304991        -8.2992
 102   1.0000      -0.301272        -8.1980
 103   1.0000      -0.300610        -8.1800
 104   1.0000      -0.300138        -8.1672
 105   1.0000      -0.296376        -8.0648
 106   1.0000      -0.295182        -8.0323
 107   1.0000      -0.294684        -8.0188
 108   1.0000      -0.293016        -7.9734
 109   1.0000      -0.289485        -7.8773
 110   1.0000      -0.289110        -7.8671
 111   1.0000      -0.286605        -7.7989
 112   1.0000      -0.284120        -7.7313
 113   1.0000      -0.283885        -7.7249
 114   1.0000      -0.280735        -7.6392
 115   1.0000      -0.278493        -7.5782
 116   1.0000      -0.276944        -7.5360
 117   1.0000      -0.276071        -7.5123
 118   1.0000      -0.272347        -7.4109
 119   1.0000      -0.271836        -7.3970
 120   1.0000      -0.269116        -7.3230
 121   1.0000      -0.268200        -7.2981
 122   1.0000      -0.267780        -7.2867
 123   1.0000      -0.267148        -7.2695
 124   1.0000      -0.265124        -7.2144
 125   1.0000      -0.263862        -7.1800
 126   1.0000      -0.263087        -7.1590
 127   1.0000      -0.262665        -7.1475
 128   1.0000      -0.261042        -7.1033
 129   1.0000      -0.259941        -7.0734
 130   1.0000      -0.259857        -7.0711
 131   1.0000      -0.258696        -7.0395
 132   1.0000      -0.256705        -6.9853
 133   1.0000      -0.256466        -6.9788
 134   1.0000      -0.253763        -6.9053
 135   1.0000      -0.251984        -6.8568
 136   1.0000      -0.251711        -6.8494
 137   1.0000      -0.250196        -6.8082
 138   1.0000      -0.232350        -6.3226
 139   1.0000      -0.226054        -6.1513
 140   1.0000      -0.214488        -5.8365
 141   1.0000      -0.211315        -5.7502
 142   1.0000      -0.196928        -5.3587
 143   1.0000      -0.196756        -5.3540
 144   0.0000      -0.148659        -4.0452
 145   0.0000      -0.132137        -3.5956
 146   0.0000      -0.115455        -3.1417
 147   0.0000      -0.114515        -3.1161
 148   0.0000      -0.112572        -3.0632

MULLIKEN ATOMIC CHARGES AND SPIN POPULATIONS
--------------------------------------------
   0 Au:    0.148960   -0.185179
   1 Au:    0.369392   -0.012290
   2 Au:    0.274780   -0.141517
   3 Au:    0.275185   -0.142212
   4 Au:    0.206861   -0.017909
   5 Au:    0.091415   -0.039708
   6 Au:    0.115954   -0.122120
   7 Au:    0.366893   -0.012756
   8 Au:    0.113690   -0.122650
   9 Au:    0.202247   -0.016910
  10 Au:    0.094125   -0.041376
  11 Au:    0.224578   -0.084400
  12 Au:    0.148413   -0.181626
  13 Au:   -0.191494   -0.074634
  14 Mn:   -2.440998    4.195286
Sum of atomic charges         :   -0.0000000

LOEWDIN ATOMIC CHARGES AND SPIN POPULATIONS
-------------------------------------------
   0 Au:    0.023136   -0.110354
   1 Au:    0.090277   -0.076867
   2 Au:    0.072997   -0.136766
   3 Au:    0.073565   -0.137062
   4 Au:    0.039519   -0.056119
   5 Au:    0.006162   -0.065019
   6 Au:    0.026233   -0.093198
   7 Au:    0.089513   -0.076961
   8 Au:    0.026145   -0.092779
   9 Au:    0.038272   -0.054999
  10 Au:    0.005529   -0.066471
  11 Au:    0.056624   -0.074560
  12 Au:    0.023638   -0.109323
  13 Au:   -0.034339   -0.066015
  14 Mn:   -0.537271    4.216494

  Mayer bond orders larger than 0.100000
B(  0-Au,  1-Au) :   0.2020 B(  0-Au,  3-Au) :   0.2122 B(  0-Au,  5-Au) :   0.1137
B(  0-Au, 12-Au) :   0.2522 B(  0-Au, 13-Au) :   0.2108 B(  0-Au, 14-Mn) :   0.4643
B(  1-Au,  5-Au) :   0.2889 B(  1-Au,  6-Au) :   0.2650 B(  1-Au, 13-Au) :   0.3648
B(  2-Au,  3-Au) :   0.2309 B(  2-Au,  9-Au) :   0.1689 B(  2-Au, 10-Au) :   0.1943
B(  2-Au, 12-Au) :   0.2109 B(  2-Au, 14-Mn) :   0.4244 B(  3-Au,  4-Au) :   0.1687
B(  3-Au,  5-Au) :   0.1883 B(  3-Au, 14-Mn) :   0.4290 B(  4-Au,  5-Au) :   0.2563
B(  4-Au,  9-Au) :   0.2629 B(  4-Au, 11-Au) :   0.2045 B(  4-Au, 14-Mn) :   0.3855
B(  5-Au,  6-Au) :   0.1877 B(  5-Au, 14-Mn) :   0.3953 B(  6-Au,  8-Au) :   0.2525
B(  6-Au, 11-Au) :   0.2405 B(  6-Au, 13-Au) :   0.1319 B(  6-Au, 14-Mn) :   0.4460
B(  7-Au,  8-Au) :   0.2656 B(  7-Au, 10-Au) :   0.2885 B(  7-Au, 12-Au) :   0.2008
B(  7-Au, 13-Au) :   0.3671 B(  8-Au, 10-Au) :   0.1909 B(  8-Au, 11-Au) :   0.2394
B(  8-Au, 13-Au) :   0.1292 B(  8-Au, 14-Mn) :   0.4498 B(  9-Au, 10-Au) :   0.2511
B(  9-Au, 11-Au) :   0.2060 B(  9-Au, 14-Mn) :   0.3880 B( 10-Au, 12-Au) :   0.1126
B( 10-Au, 14-Mn) :   0.3876 B( 11-Au, 14-Mn) :   0.4725 B( 12-Au, 13-Au) :   0.2112
B( 12-Au, 14-Mn) :   0.4690 B( 13-Au, 14-Mn) :   0.3916

FINAL SINGLE POINT ENERGY     -3052.872841691500

DIPOLE MOMENT
-------------
                                X             Y             Z
Electronic contribution:    -10.15194       5.95561       2.51330
Nuclear contribution   :     10.02253      -5.82799      -2.30791
                        -----------------------------------------
Total Dipole Moment    :     -0.12941       0.12762       0.20540
                        -----------------------------------------
Magnitude (a.u.)       :      0.27426
Magnitude (Debye)      :      0.69712

Rotational constants in cm-1:     0.001111     0.001088     0.000934
Rotational constants in MHz :    33.306490    32.610173    27.998228

                             ****ORCA TERMINATED NORMALLY****
TOTAL RUN TIME: 0 days 0 hours 18 minutes 44 seconds 919 msec
