                         Program Version 5.0.3 -  RELEASE  -
|  1> %pal nprocs 1 end
|  2>
|  3> !PBE def2-TZVP OPT UNO
|  4> !SLOWCONV
|  5>
|  6> *xyzfile 0 5 6.xyz                           ****END OF INPUT****
 Total Charge           Charge          ....    0
 Multiplicity           Mult            ....    5
 Number of Electrons    NEL             ....  330
FINAL SINGLE POINT ENERGY     -3436.756679041079
FINAL SINGLE POINT ENERGY     -3436.759243378235
FINAL SINGLE POINT ENERGY     -3436.759765343010
FINAL SINGLE POINT ENERGY     -3436.760279390595
FINAL SINGLE POINT ENERGY     -3436.760569350005
FINAL SINGLE POINT ENERGY     -3436.760917587240
FINAL SINGLE POINT ENERGY     -3436.761245205667
FINAL SINGLE POINT ENERGY     -3436.761529627909
FINAL SINGLE POINT ENERGY     -3436.761748749140
FINAL SINGLE POINT ENERGY     -3436.761953951926
FINAL SINGLE POINT ENERGY     -3436.762053065536
FINAL SINGLE POINT ENERGY     -3436.762077387555
FINAL SINGLE POINT ENERGY     -3436.762092201976
FINAL SINGLE POINT ENERGY     -3436.762103554637
FINAL SINGLE POINT ENERGY     -3436.762106873472
                    ***********************HURRAY********************

CARTESIAN COORDINATES (ANGSTROEM)
---------------------------------
  Au     4.546113    7.323222   10.025088
  Au     5.731941    9.862284   10.024182
  Au     8.059059    9.883577    8.421281
  Au    10.816747    5.938813    7.444827
  Au     9.554141    8.213056    6.474462
  Au     9.883186    7.961532    9.205412
  Au     8.661265    5.362302    9.202079
  Au     7.294045    7.588463   10.069128
  Au     4.116460    7.452902    7.341371
  Au     5.653566    5.826016    5.627778
  Au     5.213706    8.580559    5.028999
  Au     7.718658    7.401116    4.510142
  Au     8.258370    5.465767    6.471088
  Au     6.018254    5.540118    8.408209
  Au     7.620255    9.993217    5.636721
  Au     5.382794   10.145033    7.341119
  Fe     6.831025    7.814842    7.188518

 Multiplicity           Mult            ....    5
 Number of Electrons    NEL             ....  330
 Basis Dimension        Dim             ....  685

ORBITAL ENERGIES
----------------
                 SPIN UP ORBITALS
  NO   OCC          E(Eh)            E(eV)
   0   1.0000    -254.767860     -6932.5859
   1   1.0000     -29.604930      -805.5911
   2   1.0000     -25.547246      -695.1759
   3   1.0000     -25.542540      -695.0478
   4   1.0000     -25.530281      -694.7143
   5   1.0000      -4.040323      -109.9428
   6   1.0000      -4.040305      -109.9423
   7   1.0000      -4.037870      -109.8760
   8   1.0000      -4.034085      -109.7730
   9   1.0000      -4.034070      -109.7726
  10   1.0000      -4.033197      -109.7489
  11   1.0000      -4.032296      -109.7243
  12   1.0000      -4.032171      -109.7210
  13   1.0000      -4.031234      -109.6954
  14   1.0000      -4.031170      -109.6937
  15   1.0000      -4.030983      -109.6886
  16   1.0000      -4.022620      -109.4611
  17   1.0000      -4.022541      -109.4589
  18   1.0000      -4.019946      -109.3883
  19   1.0000      -4.019776      -109.3837
  20   1.0000      -4.017182      -109.3131
  21   1.0000      -3.386503       -92.1514
  22   1.0000      -2.254703       -61.3536
  23   1.0000      -2.254640       -61.3519
  24   1.0000      -2.253895       -61.3316
  25   1.0000      -2.253459       -61.3197
  26   1.0000      -2.253353       -61.3169
  27   1.0000      -2.251829       -61.2754
  28   1.0000      -2.251678       -61.2713
  29   1.0000      -2.250276       -61.2331
  30   1.0000      -2.250204       -61.2312
  31   1.0000      -2.249170       -61.2030
  32   1.0000      -2.248916       -61.1961
  33   1.0000      -2.248631       -61.1883
  34   1.0000      -2.248440       -61.1832
  35   1.0000      -2.247873       -61.1677
  36   1.0000      -2.246980       -61.1434
  37   1.0000      -2.246714       -61.1362
  38   1.0000      -2.246632       -61.1340
  39   1.0000      -2.246614       -61.1335
  40   1.0000      -2.245626       -61.1066
  41   1.0000      -2.245512       -61.1035
  42   1.0000      -2.245165       -61.0940
  43   1.0000      -2.244636       -61.0796
  44   1.0000      -2.244565       -61.0777
  45   1.0000      -2.244336       -61.0715
  46   1.0000      -2.244275       -61.0698
  47   1.0000      -2.243904       -61.0597
  48   1.0000      -2.243836       -61.0579
  49   1.0000      -2.242756       -61.0285
  50   1.0000      -2.242557       -61.0231
  51   1.0000      -2.242090       -61.0104
  52   1.0000      -2.241675       -60.9991
  53   1.0000      -2.241336       -60.9899
  54   1.0000      -2.240412       -60.9647
  55   1.0000      -2.237853       -60.8951
  56   1.0000      -2.237347       -60.8813
  57   1.0000      -2.236485       -60.8579
  58   1.0000      -2.235655       -60.8353
  59   1.0000      -2.234900       -60.8147
  60   1.0000      -2.233655       -60.7808
  61   1.0000      -2.233554       -60.7781
  62   1.0000      -2.233158       -60.7673
  63   1.0000      -2.232966       -60.7621
  64   1.0000      -2.232083       -60.7381
  65   1.0000      -2.231732       -60.7285
  66   1.0000      -2.230978       -60.7080
  67   1.0000      -2.229798       -60.6759
  68   1.0000      -2.229663       -60.6722
  69   1.0000      -2.228939       -60.6525
  70   1.0000      -2.214887       -60.2701
  71   1.0000      -2.205655       -60.0189
  72   1.0000      -2.179963       -59.3198
  73   1.0000      -0.443468       -12.0674
  74   1.0000      -0.398451       -10.8424
  75   1.0000      -0.395999       -10.7757
  76   1.0000      -0.393365       -10.7040
  77   1.0000      -0.383669       -10.4402
  78   1.0000      -0.381973       -10.3940
  79   1.0000      -0.379915       -10.3380
  80   1.0000      -0.379633       -10.3303
  81   1.0000      -0.373132       -10.1534
  82   1.0000      -0.368140       -10.0176
  83   1.0000      -0.365998        -9.9593
  84   1.0000      -0.364888        -9.9291
  85   1.0000      -0.362643        -9.8680
  86   1.0000      -0.361865        -9.8469
  87   1.0000      -0.360300        -9.8043
  88   1.0000      -0.355071        -9.6620
  89   1.0000      -0.355002        -9.6601
  90   1.0000      -0.353241        -9.6122
  91   1.0000      -0.351194        -9.5565
  92   1.0000      -0.348985        -9.4964
  93   1.0000      -0.348897        -9.4940
  94   1.0000      -0.345523        -9.4022
  95   1.0000      -0.342912        -9.3311
  96   1.0000      -0.342728        -9.3261
  97   1.0000      -0.342041        -9.3074
  98   1.0000      -0.337349        -9.1797
  99   1.0000      -0.336589        -9.1590
 100   1.0000      -0.334693        -9.1074
 101   1.0000      -0.331476        -9.0199
 102   1.0000      -0.329268        -8.9598
 103   1.0000      -0.329030        -8.9534
 104   1.0000      -0.324076        -8.8185
 105   1.0000      -0.321341        -8.7441
 106   1.0000      -0.320737        -8.7277
 107   1.0000      -0.320096        -8.7102
 108   1.0000      -0.316441        -8.6108
 109   1.0000      -0.315505        -8.5853
 110   1.0000      -0.312323        -8.4987
 111   1.0000      -0.309452        -8.4206
 112   1.0000      -0.305813        -8.3216
 113   1.0000      -0.305291        -8.3074
 114   1.0000      -0.301947        -8.2164
 115   1.0000      -0.301783        -8.2119
 116   1.0000      -0.299704        -8.1554
 117   1.0000      -0.297816        -8.1040
 118   1.0000      -0.294778        -8.0213
 119   1.0000      -0.292432        -7.9575
 120   1.0000      -0.292229        -7.9520
 121   1.0000      -0.285781        -7.7765
 122   1.0000      -0.284996        -7.7551
 123   1.0000      -0.284782        -7.7493
 124   1.0000      -0.283268        -7.7081
 125   1.0000      -0.280562        -7.6345
 126   1.0000      -0.280500        -7.6328
 127   1.0000      -0.277015        -7.5380
 128   1.0000      -0.276761        -7.5311
 129   1.0000      -0.275756        -7.5037
 130   1.0000      -0.274050        -7.4573
 131   1.0000      -0.273543        -7.4435
 132   1.0000      -0.272194        -7.4068
 133   1.0000      -0.271990        -7.4012
 134   1.0000      -0.270518        -7.3612
 135   1.0000      -0.270109        -7.3500
 136   1.0000      -0.269506        -7.3336
 137   1.0000      -0.267411        -7.2766
 138   1.0000      -0.266469        -7.2510
 139   1.0000      -0.264506        -7.1976
 140   1.0000      -0.263474        -7.1695
 141   1.0000      -0.263127        -7.1601
 142   1.0000      -0.262433        -7.1412
 143   1.0000      -0.261192        -7.1074
 144   1.0000      -0.259301        -7.0559
 145   1.0000      -0.258926        -7.0457
 146   1.0000      -0.257358        -7.0031
 147   1.0000      -0.255142        -6.9428
 148   1.0000      -0.255097        -6.9415
 149   1.0000      -0.253068        -6.8863
 150   1.0000      -0.252399        -6.8681
 151   1.0000      -0.251778        -6.8512
 152   1.0000      -0.250380        -6.8132
 153   1.0000      -0.248667        -6.7666
 154   1.0000      -0.247314        -6.7298
 155   1.0000      -0.246660        -6.7120
 156   1.0000      -0.245319        -6.6755
 157   1.0000      -0.244414        -6.6508
 158   1.0000      -0.241511        -6.5718
 159   1.0000      -0.240202        -6.5362
 160   1.0000      -0.235886        -6.4188
 161   1.0000      -0.234046        -6.3687
 162   1.0000      -0.222347        -6.0504
 163   1.0000      -0.213248        -5.8028
 164   1.0000      -0.210945        -5.7401
 165   1.0000      -0.207504        -5.6465
 166   1.0000      -0.203708        -5.5432
 167   0.0000      -0.158373        -4.3095
 168   0.0000      -0.143095        -3.8938
 169   0.0000      -0.134418        -3.6577
 170   0.0000      -0.133479        -3.6321
 171   0.0000      -0.130131        -3.5410

                 SPIN DOWN ORBITALS
  NO   OCC          E(Eh)            E(eV)
   0   1.0000    -254.767166     -6932.5670
   1   1.0000     -29.544232      -803.9394
   2   1.0000     -25.498046      -693.8371
   3   1.0000     -25.495672      -693.7725
   4   1.0000     -25.488885      -693.5878
   5   1.0000      -4.039397      -109.9176
   6   1.0000      -4.039384      -109.9172
   7   1.0000      -4.036993      -109.8522
   8   1.0000      -4.033690      -109.7623
   9   1.0000      -4.033671      -109.7618
  10   1.0000      -4.032598      -109.7326
  11   1.0000      -4.032154      -109.7205
  12   1.0000      -4.032034      -109.7172
  13   1.0000      -4.030741      -109.6820
  14   1.0000      -4.030684      -109.6805
  15   1.0000      -4.030412      -109.6731
  16   1.0000      -4.022555      -109.4593
  17   1.0000      -4.022476      -109.4571
  18   1.0000      -4.019864      -109.3861
  19   1.0000      -4.019694      -109.3814
  20   1.0000      -4.017213      -109.3139
  21   1.0000      -3.248537       -88.3972
  22   1.0000      -2.253262       -61.3144
  23   1.0000      -2.253236       -61.3137
  24   1.0000      -2.252886       -61.3041
  25   1.0000      -2.252543       -61.2948
  26   1.0000      -2.252403       -61.2910
  27   1.0000      -2.251204       -61.2584
  28   1.0000      -2.251001       -61.2529
  29   1.0000      -2.250045       -61.2268
  30   1.0000      -2.249988       -61.2253
  31   1.0000      -2.248436       -61.1831
  32   1.0000      -2.248065       -61.1730
  33   1.0000      -2.247905       -61.1686
  34   1.0000      -2.247667       -61.1621
  35   1.0000      -2.247220       -61.1500
  36   1.0000      -2.246541       -61.1315
  37   1.0000      -2.246325       -61.1256
  38   1.0000      -2.246295       -61.1248
  39   1.0000      -2.246113       -61.1199
  40   1.0000      -2.245178       -61.0944
  41   1.0000      -2.245118       -61.0928
  42   1.0000      -2.244458       -61.0748
  43   1.0000      -2.244288       -61.0702
  44   1.0000      -2.244050       -61.0637
  45   1.0000      -2.243784       -61.0565
  46   1.0000      -2.243621       -61.0520
  47   1.0000      -2.243386       -61.0456
  48   1.0000      -2.243232       -61.0415
  49   1.0000      -2.242384       -61.0184
  50   1.0000      -2.242062       -61.0096
  51   1.0000      -2.241736       -61.0007
  52   1.0000      -2.241368       -60.9907
  53   1.0000      -2.241222       -60.9868
  54   1.0000      -2.240096       -60.9561
  55   1.0000      -2.237852       -60.8950
  56   1.0000      -2.237343       -60.8812
  57   1.0000      -2.236344       -60.8540
  58   1.0000      -2.235515       -60.8315
  59   1.0000      -2.234794       -60.8118
  60   1.0000      -2.233553       -60.7781
  61   1.0000      -2.233481       -60.7761
  62   1.0000      -2.233069       -60.7649
  63   1.0000      -2.232884       -60.7599
  64   1.0000      -2.232023       -60.7364
  65   1.0000      -2.231648       -60.7262
  66   1.0000      -2.231072       -60.7105
  67   1.0000      -2.229720       -60.6738
  68   1.0000      -2.229658       -60.6721
  69   1.0000      -2.228930       -60.6523
  70   1.0000      -2.070508       -56.3414
  71   1.0000      -2.067684       -56.2645
  72   1.0000      -2.056983       -55.9733
  73   1.0000      -0.438722       -11.9382
  74   1.0000      -0.397106       -10.8058
  75   1.0000      -0.394386       -10.7318
  76   1.0000      -0.392223       -10.6729
  77   1.0000      -0.375298       -10.2124
  78   1.0000      -0.375257       -10.2113
  79   1.0000      -0.373525       -10.1641
  80   1.0000      -0.371071       -10.0974
  81   1.0000      -0.369555       -10.0561
  82   1.0000      -0.366319        -9.9681
  83   1.0000      -0.364330        -9.9139
  84   1.0000      -0.363665        -9.8958
  85   1.0000      -0.361807        -9.8453
  86   1.0000      -0.359811        -9.7910
  87   1.0000      -0.358961        -9.7678
  88   1.0000      -0.353350        -9.6151
  89   1.0000      -0.352967        -9.6047
  90   1.0000      -0.351110        -9.5542
  91   1.0000      -0.350625        -9.5410
  92   1.0000      -0.348098        -9.4722
  93   1.0000      -0.346494        -9.4286
  94   1.0000      -0.344300        -9.3689
  95   1.0000      -0.342117        -9.3095
  96   1.0000      -0.341050        -9.2804
  97   1.0000      -0.340675        -9.2702
  98   1.0000      -0.335448        -9.1280
  99   1.0000      -0.332953        -9.0601
 100   1.0000      -0.332487        -9.0474
 101   1.0000      -0.328100        -8.9280
 102   1.0000      -0.327818        -8.9204
 103   1.0000      -0.324606        -8.8330
 104   1.0000      -0.322311        -8.7705
 105   1.0000      -0.319767        -8.7013
 106   1.0000      -0.318244        -8.6599
 107   1.0000      -0.315761        -8.5923
 108   1.0000      -0.314299        -8.5525
 109   1.0000      -0.313989        -8.5441
 110   1.0000      -0.307067        -8.3557
 111   1.0000      -0.304485        -8.2855
 112   1.0000      -0.303833        -8.2677
 113   1.0000      -0.299941        -8.1618
 114   1.0000      -0.297456        -8.0942
 115   1.0000      -0.295488        -8.0406
 116   1.0000      -0.294032        -8.0010
 117   1.0000      -0.291271        -7.9259
 118   1.0000      -0.290261        -7.8984
 119   1.0000      -0.289017        -7.8646
 120   1.0000      -0.284758        -7.7487
 121   1.0000      -0.283456        -7.7132
 122   1.0000      -0.281334        -7.6555
 123   1.0000      -0.281154        -7.6506
 124   1.0000      -0.278850        -7.5879
 125   1.0000      -0.278401        -7.5757
 126   1.0000      -0.278234        -7.5711
 127   1.0000      -0.275797        -7.5048
 128   1.0000      -0.275649        -7.5008
 129   1.0000      -0.272516        -7.4155
 130   1.0000      -0.272201        -7.4070
 131   1.0000      -0.271813        -7.3964
 132   1.0000      -0.270726        -7.3668
 133   1.0000      -0.268725        -7.3124
 134   1.0000      -0.268634        -7.3099
 135   1.0000      -0.267716        -7.2849
 136   1.0000      -0.265867        -7.2346
 137   1.0000      -0.263608        -7.1731
 138   1.0000      -0.262504        -7.1431
 139   1.0000      -0.262416        -7.1407
 140   1.0000      -0.261174        -7.1069
 141   1.0000      -0.258912        -7.0454
 142   1.0000      -0.257291        -7.0013
 143   1.0000      -0.255064        -6.9407
 144   1.0000      -0.254647        -6.9293
 145   1.0000      -0.252957        -6.8833
 146   1.0000      -0.252268        -6.8646
 147   1.0000      -0.251308        -6.8384
 148   1.0000      -0.250002        -6.8029
 149   1.0000      -0.249232        -6.7819
 150   1.0000      -0.247569        -6.7367
 151   1.0000      -0.245954        -6.6927
 152   1.0000      -0.243997        -6.6395
 153   1.0000      -0.243612        -6.6290
 154   1.0000      -0.242008        -6.5854
 155   1.0000      -0.236260        -6.4290
 156   1.0000      -0.233846        -6.3633
 157   1.0000      -0.226147        -6.1538
 158   1.0000      -0.217798        -5.9266
 159   1.0000      -0.217173        -5.9096
 160   1.0000      -0.212972        -5.7953
 161   1.0000      -0.211332        -5.7506
 162   1.0000      -0.183144        -4.9836
 163   0.0000      -0.171668        -4.6713
 164   0.0000      -0.170420        -4.6374
 165   0.0000      -0.160521        -4.3680
 166   0.0000      -0.156655        -4.2628
 167   0.0000      -0.151548        -4.1238

MULLIKEN ATOMIC CHARGES AND SPIN POPULATIONS
--------------------------------------------
   0 Au:    0.309391    0.046487
   1 Au:    0.303897    0.046538
   2 Au:    0.030697    0.077757
   3 Au:    0.400962   -0.071268
   4 Au:   -0.180681    0.039201
   5 Au:    0.281609    0.052295
   6 Au:    0.281880    0.052469
   7 Au:   -0.474620    0.091540
   8 Au:    0.138113    0.046135
   9 Au:    0.366829    0.054489
  10 Au:    0.309891    0.076944
  11 Au:    0.318796    0.076907
  12 Au:   -0.181403    0.039604
  13 Au:    0.027849    0.077885
  14 Au:    0.365985    0.055173
  15 Au:    0.141960    0.045682
  16 Fe:   -2.441155    3.192162
Sum of atomic charges         :    0.0000000

LOEWDIN ATOMIC CHARGES AND SPIN POPULATIONS
-------------------------------------------
   0 Au:    0.057265    0.043135
   1 Au:    0.055986    0.043087
   2 Au:    0.025865    0.066478
   3 Au:    0.081026   -0.029032
   4 Au:   -0.034278    0.020009
   5 Au:    0.015688    0.036597
   6 Au:    0.015922    0.036716
   7 Au:   -0.070360    0.081270
   8 Au:    0.038854    0.036764
   9 Au:    0.078183    0.043191
  10 Au:    0.053617    0.058738
  11 Au:    0.066595    0.058877
  12 Au:   -0.034018    0.020269
  13 Au:    0.024928    0.066518
  14 Au:    0.077878    0.043477
  15 Au:    0.039035    0.036459
  16 Fe:   -0.492185    3.337447

  Mayer bond orders larger than 0.100000
B(  0-Au,  1-Au) :   0.2379 B(  0-Au,  7-Au) :   0.3722 B(  0-Au,  8-Au) :   0.3361
B(  0-Au, 13-Au) :   0.2252 B(  0-Au, 16-Fe) :   0.1096 B(  1-Au,  2-Au) :   0.2228
B(  1-Au,  7-Au) :   0.3761 B(  1-Au, 15-Au) :   0.3343 B(  1-Au, 16-Fe) :   0.1111
B(  2-Au,  4-Au) :   0.1444 B(  2-Au,  5-Au) :   0.2889 B(  2-Au,  7-Au) :   0.1960
B(  2-Au, 14-Au) :   0.1684 B(  2-Au, 15-Au) :   0.1718 B(  2-Au, 16-Fe) :   0.5208
B(  3-Au,  4-Au) :   0.3416 B(  3-Au,  5-Au) :   0.2067 B(  3-Au,  6-Au) :   0.2063
B(  3-Au, 12-Au) :   0.3407 B(  4-Au,  5-Au) :   0.3033 B(  4-Au, 11-Au) :   0.2096
B(  4-Au, 12-Au) :   0.2302 B(  4-Au, 14-Au) :   0.3008 B(  4-Au, 16-Fe) :   0.3775
B(  5-Au,  6-Au) :   0.1837 B(  5-Au,  7-Au) :   0.3226 B(  5-Au, 16-Fe) :   0.1215
B(  6-Au,  7-Au) :   0.3237 B(  6-Au, 12-Au) :   0.3032 B(  6-Au, 13-Au) :   0.2871
B(  6-Au, 16-Fe) :   0.1214 B(  7-Au, 13-Au) :   0.1962 B(  7-Au, 16-Fe) :   0.4121
B(  8-Au,  9-Au) :   0.2000 B(  8-Au, 10-Au) :   0.2155 B(  8-Au, 13-Au) :   0.1706
B(  8-Au, 15-Au) :   0.1148 B(  8-Au, 16-Fe) :   0.4122 B(  9-Au, 10-Au) :   0.1635
B(  9-Au, 11-Au) :   0.1618 B(  9-Au, 12-Au) :   0.2982 B(  9-Au, 13-Au) :   0.1702
B(  9-Au, 16-Fe) :   0.4127 B( 10-Au, 11-Au) :   0.2301 B( 10-Au, 14-Au) :   0.1624
B( 10-Au, 15-Au) :   0.2153 B( 10-Au, 16-Fe) :   0.4226 B( 11-Au, 12-Au) :   0.2109
B( 11-Au, 14-Au) :   0.1617 B( 11-Au, 16-Fe) :   0.3705 B( 12-Au, 13-Au) :   0.1461
B( 12-Au, 16-Fe) :   0.3780 B( 13-Au, 16-Fe) :   0.5194 B( 14-Au, 15-Au) :   0.2007
B( 14-Au, 16-Fe) :   0.4127 B( 15-Au, 16-Fe) :   0.4102

FINAL SINGLE POINT ENERGY     -3436.762108348873

DIPOLE MOMENT
-------------
                                X             Y             Z
Electronic contribution:     12.34371      -5.90165      14.80742
Nuclear contribution   :    -12.51591       5.97905     -14.86841
                        -----------------------------------------
Total Dipole Moment    :     -0.17220       0.07740      -0.06098
                        -----------------------------------------
Magnitude (a.u.)       :      0.19840
Magnitude (Debye)      :      0.50430

Rotational constants in cm-1:     0.000950     0.000824     0.000741
Rotational constants in MHz :    28.465479    24.703309    22.203406

                             ****ORCA TERMINATED NORMALLY****
TOTAL RUN TIME: 0 days 4 hours 46 minutes 38 seconds 673 msec
