                         Program Version 5.0.3 -  RELEASE  -
|  1> !RI-B2PLYP def2-TZVP def2-TZVP/C
|  2> !RIJCOSX VERYSLOWCONV
|  3>
|  4> %scf
|  5>   AutoTRAHIter 200
|  6>   maxiter 400
|  7> end
|  8>
|  9>
| 10> %pal nprocs 6 end
| 11>
| 12> *xyzfile 0 5 pbe.xyz
| 13>
| 14> $new_job
| 15>
| 16> !RI-B2PLYP def2-TZVP def2-TZVP/C
| 17> !RIJCOSX VERYSLOWCONV
| 18>
| 19> %scf
| 20>   AutoTRAHIter 200
| 21>   maxiter 400
| 22> end
| 23>
| 24>
| 25> %pal nprocs 6 end
| 26>
| 27> *xyzfile 0 3 pbe.xyz
| 28>
| 29>
| 30>
| 31>
| 32>
| 33>                          ****END OF INPUT****
 Total Charge           Charge          ....    0
 Multiplicity           Mult            ....    5
 Number of Electrons    NEL             ....  252
MP2 TOTAL ENERGY:    -2671.300320964 Eh
FINAL SINGLE POINT ENERGY     -2671.300320964416

CARTESIAN COORDINATES (ANGSTROEM)
---------------------------------
  Au     7.954869    8.933313   10.802903
  Au     9.548569    6.908858    9.560746
  Au     6.799053   11.211120    6.715001
  Au     8.781465   10.528479    8.657953
  Au     6.870052    6.397393   10.036346
  Au     5.950448    9.991148    9.161575
  Au     5.392492    8.811109    6.708986
  Au     6.024995    6.133859    7.485314
  Au     8.874258    9.466716    6.090414
  Au     6.645180    9.768005    4.327399
  Au     9.525045    6.792965    6.862911
  Au     7.281990    7.234965    5.218692
  Cr     7.626051    8.156590    8.128798

 Multiplicity           Mult            ....    3
 Number of Electrons    NEL             ....  252
 Basis Dimension        Dim             ....  525

ORBITAL ENERGIES
----------------
                 SPIN UP ORBITALS
  NO   OCC          E(Eh)            E(eV)
   0   1.0000    -217.742705     -5925.0802
   1   1.0000     -25.428818      -691.9533
   2   1.0000     -21.567834      -586.8906
   3   1.0000     -21.567763      -586.8887
   4   1.0000     -21.563063      -586.7608
   5   1.0000      -4.401412      -119.7685
   6   1.0000      -4.401379      -119.7676
   7   1.0000      -4.400096      -119.7327
   8   1.0000      -4.399761      -119.7236
   9   1.0000      -4.393369      -119.5496
  10   1.0000      -4.392757      -119.5330
  11   1.0000      -4.392681      -119.5309
  12   1.0000      -4.388667      -119.4217
  13   1.0000      -4.388570      -119.4191
  14   1.0000      -4.384655      -119.3125
  15   1.0000      -4.381602      -119.2295
  16   1.0000      -4.381411      -119.2242
  17   1.0000      -3.217943       -87.5647
  18   1.0000      -2.521965       -68.6262
  19   1.0000      -2.521203       -68.6054
  20   1.0000      -2.521125       -68.6033
  21   1.0000      -2.520612       -68.5893
  22   1.0000      -2.520082       -68.5749
  23   1.0000      -2.519596       -68.5617
  24   1.0000      -2.519066       -68.5473
  25   1.0000      -2.518427       -68.5299
  26   1.0000      -2.516743       -68.4841
  27   1.0000      -2.516019       -68.4644
  28   1.0000      -2.515878       -68.4605
  29   1.0000      -2.515710       -68.4560
  30   1.0000      -2.514482       -68.4225
  31   1.0000      -2.512681       -68.3735
  32   1.0000      -2.512223       -68.3611
  33   1.0000      -2.512173       -68.3597
  34   1.0000      -2.510687       -68.3193
  35   1.0000      -2.509214       -68.2792
  36   1.0000      -2.509106       -68.2762
  37   1.0000      -2.508109       -68.2491
  38   1.0000      -2.507674       -68.2373
  39   1.0000      -2.507479       -68.2320
  40   1.0000      -2.506656       -68.2096
  41   1.0000      -2.506566       -68.2071
  42   1.0000      -2.505933       -68.1899
  43   1.0000      -2.502867       -68.1065
  44   1.0000      -2.502488       -68.0962
  45   1.0000      -2.502080       -68.0851
  46   1.0000      -2.501966       -68.0819
  47   1.0000      -2.501841       -68.0785
  48   1.0000      -2.500807       -68.0504
  49   1.0000      -2.499812       -68.0234
  50   1.0000      -2.498852       -67.9972
  51   1.0000      -2.497778       -67.9680
  52   1.0000      -2.496121       -67.9229
  53   1.0000      -2.494059       -67.8668
  54   1.0000      -2.109068       -57.3907
  55   1.0000      -2.101289       -57.1790
  56   1.0000      -2.100166       -57.1484
  57   1.0000      -0.489121       -13.3097
  58   1.0000      -0.474096       -12.9008
  59   1.0000      -0.470775       -12.8104
  60   1.0000      -0.463330       -12.6079
  61   1.0000      -0.459769       -12.5109
  62   1.0000      -0.457255       -12.4425
  63   1.0000      -0.455388       -12.3917
  64   1.0000      -0.451611       -12.2890
  65   1.0000      -0.451280       -12.2799
  66   1.0000      -0.445670       -12.1273
  67   1.0000      -0.444763       -12.1026
  68   1.0000      -0.443238       -12.0611
  69   1.0000      -0.440742       -11.9932
  70   1.0000      -0.438096       -11.9212
  71   1.0000      -0.437209       -11.8971
  72   1.0000      -0.435878       -11.8609
  73   1.0000      -0.430430       -11.7126
  74   1.0000      -0.429737       -11.6938
  75   1.0000      -0.427317       -11.6279
  76   1.0000      -0.426301       -11.6002
  77   1.0000      -0.425987       -11.5917
  78   1.0000      -0.418443       -11.3864
  79   1.0000      -0.417306       -11.3555
  80   1.0000      -0.414088       -11.2679
  81   1.0000      -0.409066       -11.1312
  82   1.0000      -0.405780       -11.0418
  83   1.0000      -0.404967       -11.0197
  84   1.0000      -0.402392       -10.9497
  85   1.0000      -0.400071       -10.8865
  86   1.0000      -0.397285       -10.8107
  87   1.0000      -0.396386       -10.7862
  88   1.0000      -0.391919       -10.6647
  89   1.0000      -0.388306       -10.5663
  90   1.0000      -0.386202       -10.5091
  91   1.0000      -0.381387       -10.3781
  92   1.0000      -0.379346       -10.3225
  93   1.0000      -0.374296       -10.1851
  94   1.0000      -0.372515       -10.1366
  95   1.0000      -0.371770       -10.1164
  96   1.0000      -0.370145       -10.0722
  97   1.0000      -0.366933        -9.9848
  98   1.0000      -0.366328        -9.9683
  99   1.0000      -0.363283        -9.8854
 100   1.0000      -0.361715        -9.8428
 101   1.0000      -0.359601        -9.7852
 102   1.0000      -0.358067        -9.7435
 103   1.0000      -0.357330        -9.7235
 104   1.0000      -0.354656        -9.6507
 105   1.0000      -0.353640        -9.6230
 106   1.0000      -0.351871        -9.5749
 107   1.0000      -0.350954        -9.5500
 108   1.0000      -0.347486        -9.4556
 109   1.0000      -0.347151        -9.4465
 110   1.0000      -0.345289        -9.3958
 111   1.0000      -0.344875        -9.3845
 112   1.0000      -0.338764        -9.2182
 113   1.0000      -0.337817        -9.1925
 114   1.0000      -0.336725        -9.1628
 115   1.0000      -0.334479        -9.1016
 116   1.0000      -0.333250        -9.0682
 117   1.0000      -0.324034        -8.8174
 118   1.0000      -0.321250        -8.7417
 119   1.0000      -0.320749        -8.7280
 120   1.0000      -0.314147        -8.5484
 121   1.0000      -0.311262        -8.4699
 122   1.0000      -0.309514        -8.4223
 123   1.0000      -0.290564        -7.9067
 124   1.0000      -0.267150        -7.2695
 125   1.0000      -0.233758        -6.3609
 126   1.0000      -0.225208        -6.1282
 127   0.0000      -0.128017        -3.4835
 128   0.0000      -0.095622        -2.6020
 129   0.0000      -0.084538        -2.3004
 130   0.0000      -0.068923        -1.8755
 131   0.0000      -0.061362        -1.6698

                 SPIN DOWN ORBITALS
  NO   OCC          E(Eh)            E(eV)
   0   1.0000    -217.741378     -5925.0441
   1   1.0000     -25.358624      -690.0432
   2   1.0000     -21.506715      -585.2275
   3   1.0000     -21.506654      -585.2258
   4   1.0000     -21.490847      -584.7957
   5   1.0000      -4.400982      -119.7568
   6   1.0000      -4.400906      -119.7547
   7   1.0000      -4.400702      -119.7492
   8   1.0000      -4.399938      -119.7284
   9   1.0000      -4.393784      -119.5609
  10   1.0000      -4.393222      -119.5457
  11   1.0000      -4.393146      -119.5436
  12   1.0000      -4.388102      -119.4063
  13   1.0000      -4.388002      -119.4036
  14   1.0000      -4.385827      -119.3444
  15   1.0000      -4.382208      -119.2459
  16   1.0000      -4.382019      -119.2408
  17   1.0000      -3.001593       -81.6775
  18   1.0000      -2.521714       -68.6193
  19   1.0000      -2.520851       -68.5958
  20   1.0000      -2.520008       -68.5729
  21   1.0000      -2.519459       -68.5580
  22   1.0000      -2.518844       -68.5412
  23   1.0000      -2.518693       -68.5371
  24   1.0000      -2.518284       -68.5260
  25   1.0000      -2.518074       -68.5203
  26   1.0000      -2.516515       -68.4778
  27   1.0000      -2.515885       -68.4607
  28   1.0000      -2.515630       -68.4538
  29   1.0000      -2.515458       -68.4491
  30   1.0000      -2.513949       -68.4080
  31   1.0000      -2.512237       -68.3615
  32   1.0000      -2.511508       -68.3416
  33   1.0000      -2.511474       -68.3407
  34   1.0000      -2.510757       -68.3212
  35   1.0000      -2.508074       -68.2482
  36   1.0000      -2.507761       -68.2396
  37   1.0000      -2.507631       -68.2361
  38   1.0000      -2.507529       -68.2333
  39   1.0000      -2.507499       -68.2325
  40   1.0000      -2.506079       -68.1939
  41   1.0000      -2.506058       -68.1933
  42   1.0000      -2.505977       -68.1911
  43   1.0000      -2.504508       -68.1511
  44   1.0000      -2.503499       -68.1237
  45   1.0000      -2.502557       -68.0980
  46   1.0000      -2.501066       -68.0575
  47   1.0000      -2.501010       -68.0559
  48   1.0000      -2.500914       -68.0533
  49   1.0000      -2.500178       -68.0333
  50   1.0000      -2.498288       -67.9819
  51   1.0000      -2.497795       -67.9685
  52   1.0000      -2.496604       -67.9360
  53   1.0000      -2.494452       -67.8775
  54   1.0000      -1.866481       -50.7895
  55   1.0000      -1.866120       -50.7797
  56   1.0000      -1.831385       -49.8345
  57   1.0000      -0.484271       -13.1777
  58   1.0000      -0.469237       -12.7686
  59   1.0000      -0.463145       -12.6028
  60   1.0000      -0.456576       -12.4241
  61   1.0000      -0.455895       -12.4055
  62   1.0000      -0.454271       -12.3613
  63   1.0000      -0.453673       -12.3451
  64   1.0000      -0.452560       -12.3148
  65   1.0000      -0.447613       -12.1802
  66   1.0000      -0.447305       -12.1718
  67   1.0000      -0.445550       -12.1240
  68   1.0000      -0.444637       -12.0992
  69   1.0000      -0.440080       -11.9752
  70   1.0000      -0.434822       -11.8321
  71   1.0000      -0.433403       -11.7935
  72   1.0000      -0.431994       -11.7552
  73   1.0000      -0.430173       -11.7056
  74   1.0000      -0.428741       -11.6666
  75   1.0000      -0.427725       -11.6390
  76   1.0000      -0.425906       -11.5895
  77   1.0000      -0.422455       -11.4956
  78   1.0000      -0.417975       -11.3737
  79   1.0000      -0.417650       -11.3648
  80   1.0000      -0.413253       -11.2452
  81   1.0000      -0.410815       -11.1788
  82   1.0000      -0.405913       -11.0455
  83   1.0000      -0.402493       -10.9524
  84   1.0000      -0.401571       -10.9273
  85   1.0000      -0.400056       -10.8861
  86   1.0000      -0.392268       -10.6742
  87   1.0000      -0.389870       -10.6089
  88   1.0000      -0.386936       -10.5291
  89   1.0000      -0.385453       -10.4887
  90   1.0000      -0.380657       -10.3582
  91   1.0000      -0.378695       -10.3048
  92   1.0000      -0.377393       -10.2694
  93   1.0000      -0.375057       -10.2058
  94   1.0000      -0.372431       -10.1344
  95   1.0000      -0.371725       -10.1152
  96   1.0000      -0.368800       -10.0356
  97   1.0000      -0.367491        -9.9999
  98   1.0000      -0.365327        -9.9411
  99   1.0000      -0.363947        -9.9035
 100   1.0000      -0.362121        -9.8538
 101   1.0000      -0.359161        -9.7733
 102   1.0000      -0.358870        -9.7654
 103   1.0000      -0.355957        -9.6861
 104   1.0000      -0.355698        -9.6790
 105   1.0000      -0.353046        -9.6069
 106   1.0000      -0.351861        -9.5746
 107   1.0000      -0.348770        -9.4905
 108   1.0000      -0.348361        -9.4794
 109   1.0000      -0.347633        -9.4596
 110   1.0000      -0.344718        -9.3802
 111   1.0000      -0.340249        -9.2586
 112   1.0000      -0.340205        -9.2574
 113   1.0000      -0.337026        -9.1709
 114   1.0000      -0.334995        -9.1157
 115   1.0000      -0.334561        -9.1039
 116   1.0000      -0.325171        -8.8484
 117   1.0000      -0.322759        -8.7827
 118   1.0000      -0.320134        -8.7113
 119   1.0000      -0.308748        -8.4015
 120   1.0000      -0.284203        -7.7336
 121   1.0000      -0.235143        -6.3986
 122   1.0000      -0.226318        -6.1584
 123   1.0000      -0.222347        -6.0504
 124   1.0000      -0.194915        -5.3039
 125   0.0000      -0.095509        -2.5989
 126   0.0000      -0.073709        -2.0057
 127   0.0000      -0.058089        -1.5807
 128   0.0000      -0.047777        -1.3001
 129   0.0000      -0.047059        -1.2805

MULLIKEN ATOMIC CHARGES AND SPIN POPULATIONS
--------------------------------------------
   0 Au:    0.391015   -0.234329
   1 Au:    0.301450   -0.180708
   2 Au:    0.335851   -0.136617
   3 Au:    0.307228   -0.153360
   4 Au:    0.301081   -0.180736
   5 Au:    0.307768   -0.153253
   6 Au:    0.304371   -0.085532
   7 Au:    0.244935   -0.058540
   8 Au:    0.304810   -0.084983
   9 Au:    0.064748    0.048070
  10 Au:    0.246488   -0.058213
  11 Au:    0.435643   -0.230452
  12 Cr:   -3.545388    3.508653
Sum of atomic charges         :   -0.0000000

LOEWDIN ATOMIC CHARGES AND SPIN POPULATIONS
-------------------------------------------
   0 Au:    0.102426   -0.228926
   1 Au:    0.093808   -0.172198
   2 Au:    0.068524   -0.087384
   3 Au:    0.113918   -0.167398
   4 Au:    0.093867   -0.172027
   5 Au:    0.114163   -0.167418
   6 Au:    0.027160   -0.077246
   7 Au:    0.134730   -0.102707
   8 Au:    0.027690   -0.076975
   9 Au:    0.096217   -0.059434
  10 Au:    0.134980   -0.102694
  11 Au:    0.059291   -0.168959
  12 Cr:   -1.066775    3.583365

  Mayer bond orders larger than 0.100000
B(  0-Au,  1-Au) :   0.1830 B(  0-Au,  3-Au) :   0.1806 B(  0-Au,  4-Au) :   0.1824
B(  0-Au,  5-Au) :   0.1806 B(  0-Au, 12-Cr) :   0.4093 B(  1-Au,  4-Au) :   0.1895
B(  1-Au, 10-Au) :   0.2651 B(  1-Au, 12-Cr) :   0.5031 B(  2-Au,  3-Au) :   0.1791
B(  2-Au,  5-Au) :   0.1780 B(  2-Au,  6-Au) :   0.1666 B(  2-Au,  8-Au) :   0.1662
B(  2-Au,  9-Au) :   0.2532 B(  2-Au, 12-Cr) :   0.3660 B(  3-Au,  5-Au) :   0.1078
B(  3-Au,  8-Au) :   0.2170 B(  3-Au, 12-Cr) :   0.6610 B(  4-Au,  7-Au) :   0.2658
B(  4-Au, 12-Cr) :   0.5038 B(  5-Au,  6-Au) :   0.2183 B(  5-Au, 12-Cr) :   0.6617
B(  6-Au,  7-Au) :   0.2315 B(  6-Au,  9-Au) :   0.1990 B(  6-Au, 11-Au) :   0.1339
B(  6-Au, 12-Cr) :   0.4696 B(  7-Au, 11-Au) :   0.1787 B(  7-Au, 12-Cr) :   0.6388
B(  8-Au,  9-Au) :   0.1975 B(  8-Au, 10-Au) :   0.2334 B(  8-Au, 11-Au) :   0.1341
B(  8-Au, 12-Cr) :   0.4698 B(  9-Au, 11-Au) :   0.2283 B(  9-Au, 12-Cr) :   0.4704
B( 10-Au, 11-Au) :   0.1784 B( 10-Au, 12-Cr) :   0.6391 B( 11-Au, 12-Cr) :   0.3788

MP2 TOTAL ENERGY:    -2671.289218836 Eh
FINAL SINGLE POINT ENERGY     -2671.289218835899

DIPOLE MOMENT
-------------
                                X             Y             Z
Electronic contribution:     -5.52398      12.79887     -17.48237
Nuclear contribution   :      5.45310     -12.57490      17.30927
                        -----------------------------------------
Total Dipole Moment    :     -0.07088       0.22397      -0.17310
                        -----------------------------------------
Magnitude (a.u.)       :      0.29181
Magnitude (Debye)      :      0.74172

Rotational constants in cm-1:     0.001646     0.001225     0.001075
Rotational constants in MHz :    49.331643    36.724713    32.213157

                             ****ORCA TERMINATED NORMALLY****
TOTAL RUN TIME: 0 days 1 hours 1 minutes 19 seconds 794 msec
