                         Program Version 5.0.3 -  RELEASE  -
|  1> !PBE def2-TZVP VERYSLOWCONV
|  2>
|  3> %scf
|  4>   AutoTRAHIter 200
|  5>   maxiter 400
|  6> end
|  7>
|  8>
|  9> %pal nprocs 6 end
| 10>
| 11> *xyzfile 0 5 pbe.xyz
| 12>
| 13> $new_job
| 14>
| 15> !PBE def2-TZVP VERYSLOWCONV
| 16>
| 17> %scf
| 18>   AutoTRAHIter 200
| 19>   maxiter 400
| 20> end
| 21>
| 22>
| 23> %pal nprocs 6 end
| 24>
| 25> *xyzfile 0 3 pbe.xyz
| 26>
| 27>
| 28>
| 29>
| 30>
| 31>                          ****END OF INPUT****
 Total Charge           Charge          ....    0
 Multiplicity           Mult            ....    5
 Number of Electrons    NEL             ....  252
FINAL SINGLE POINT ENERGY     -2674.146038993592

CARTESIAN COORDINATES (ANGSTROEM)
---------------------------------
  Au     7.954869    8.933313   10.802903
  Au     9.548569    6.908858    9.560746
  Au     6.799053   11.211120    6.715001
  Au     8.781465   10.528479    8.657953
  Au     6.870052    6.397393   10.036346
  Au     5.950448    9.991148    9.161575
  Au     5.392492    8.811109    6.708986
  Au     6.024995    6.133859    7.485314
  Au     8.874258    9.466716    6.090414
  Au     6.645180    9.768005    4.327399
  Au     9.525045    6.792965    6.862911
  Au     7.281990    7.234965    5.218692
  Cr     7.626051    8.156590    8.128798

 Multiplicity           Mult            ....    3
 Number of Electrons    NEL             ....  252
 Basis Dimension        Dim             ....  525

ORBITAL ENERGIES
----------------
                 SPIN UP ORBITALS
  NO   OCC          E(Eh)            E(eV)
   0   1.0000    -214.506422     -5837.0165
   1   1.0000     -24.308814      -661.4765
   2   1.0000     -20.674331      -562.5771
   3   1.0000     -20.671625      -562.5035
   4   1.0000     -20.671248      -562.4933
   5   1.0000      -4.032025      -109.7170
   6   1.0000      -4.032022      -109.7169
   7   1.0000      -4.025715      -109.5453
   8   1.0000      -4.025666      -109.5440
   9   1.0000      -4.022868      -109.4678
  10   1.0000      -4.022777      -109.4653
  11   1.0000      -4.021885      -109.4411
  12   1.0000      -4.021850      -109.4401
  13   1.0000      -4.019503      -109.3762
  14   1.0000      -4.012812      -109.1942
  15   1.0000      -4.012744      -109.1923
  16   1.0000      -4.012595      -109.1883
  17   1.0000      -2.806111       -76.3582
  18   1.0000      -2.247345       -61.1534
  19   1.0000      -2.247302       -61.1522
  20   1.0000      -2.246125       -61.1202
  21   1.0000      -2.246030       -61.1176
  22   1.0000      -2.242952       -61.0338
  23   1.0000      -2.242440       -61.0199
  24   1.0000      -2.241198       -60.9861
  25   1.0000      -2.240622       -60.9704
  26   1.0000      -2.239262       -60.9334
  27   1.0000      -2.238987       -60.9259
  28   1.0000      -2.238726       -60.9188
  29   1.0000      -2.238610       -60.9157
  30   1.0000      -2.238188       -60.9042
  31   1.0000      -2.238020       -60.8996
  32   1.0000      -2.237717       -60.8914
  33   1.0000      -2.237605       -60.8883
  34   1.0000      -2.236680       -60.8632
  35   1.0000      -2.235830       -60.8400
  36   1.0000      -2.235324       -60.8263
  37   1.0000      -2.235090       -60.8199
  38   1.0000      -2.234207       -60.7959
  39   1.0000      -2.232603       -60.7522
  40   1.0000      -2.232206       -60.7414
  41   1.0000      -2.231195       -60.7139
  42   1.0000      -2.230194       -60.6867
  43   1.0000      -2.230114       -60.6845
  44   1.0000      -2.230016       -60.6818
  45   1.0000      -2.229544       -60.6690
  46   1.0000      -2.228650       -60.6446
  47   1.0000      -2.226810       -60.5946
  48   1.0000      -2.226576       -60.5882
  49   1.0000      -2.226450       -60.5848
  50   1.0000      -2.225462       -60.5579
  51   1.0000      -2.223649       -60.5086
  52   1.0000      -2.221334       -60.4456
  53   1.0000      -2.219804       -60.4039
  54   1.0000      -1.798527       -48.9404
  55   1.0000      -1.794405       -48.8283
  56   1.0000      -1.792871       -48.7865
  57   1.0000      -0.417692       -11.3660
  58   1.0000      -0.379291       -10.3210
  59   1.0000      -0.375390       -10.2149
  60   1.0000      -0.364439        -9.9169
  61   1.0000      -0.360220        -9.8021
  62   1.0000      -0.358795        -9.7633
  63   1.0000      -0.354491        -9.6462
  64   1.0000      -0.352998        -9.6056
  65   1.0000      -0.351614        -9.5679
  66   1.0000      -0.349410        -9.5079
  67   1.0000      -0.343031        -9.3344
  68   1.0000      -0.341826        -9.3015
  69   1.0000      -0.341578        -9.2948
  70   1.0000      -0.338788        -9.2189
  71   1.0000      -0.338461        -9.2100
  72   1.0000      -0.335842        -9.1387
  73   1.0000      -0.332207        -9.0398
  74   1.0000      -0.328703        -8.9444
  75   1.0000      -0.328628        -8.9424
  76   1.0000      -0.326573        -8.8865
  77   1.0000      -0.324259        -8.8235
  78   1.0000      -0.319566        -8.6958
  79   1.0000      -0.315155        -8.5758
  80   1.0000      -0.312737        -8.5100
  81   1.0000      -0.307776        -8.3750
  82   1.0000      -0.304601        -8.2886
  83   1.0000      -0.303543        -8.2598
  84   1.0000      -0.302810        -8.2399
  85   1.0000      -0.301578        -8.2063
  86   1.0000      -0.297996        -8.1089
  87   1.0000      -0.297265        -8.0890
  88   1.0000      -0.292859        -7.9691
  89   1.0000      -0.290912        -7.9161
  90   1.0000      -0.287218        -7.8156
  91   1.0000      -0.283519        -7.7149
  92   1.0000      -0.280810        -7.6412
  93   1.0000      -0.279724        -7.6117
  94   1.0000      -0.275315        -7.4917
  95   1.0000      -0.274851        -7.4791
  96   1.0000      -0.273056        -7.4302
  97   1.0000      -0.272136        -7.4052
  98   1.0000      -0.270209        -7.3527
  99   1.0000      -0.268732        -7.3126
 100   1.0000      -0.265558        -7.2262
 101   1.0000      -0.264777        -7.2050
 102   1.0000      -0.263783        -7.1779
 103   1.0000      -0.262750        -7.1498
 104   1.0000      -0.258891        -7.0448
 105   1.0000      -0.257366        -7.0033
 106   1.0000      -0.256636        -6.9834
 107   1.0000      -0.255807        -6.9609
 108   1.0000      -0.255181        -6.9438
 109   1.0000      -0.253075        -6.8865
 110   1.0000      -0.252089        -6.8597
 111   1.0000      -0.250655        -6.8207
 112   1.0000      -0.247659        -6.7392
 113   1.0000      -0.246144        -6.6979
 114   1.0000      -0.245866        -6.6903
 115   1.0000      -0.244504        -6.6533
 116   1.0000      -0.241496        -6.5714
 117   1.0000      -0.239827        -6.5260
 118   1.0000      -0.236895        -6.4462
 119   1.0000      -0.235154        -6.3989
 120   1.0000      -0.226228        -6.1560
 121   1.0000      -0.220177        -5.9913
 122   1.0000      -0.216861        -5.9011
 123   1.0000      -0.214729        -5.8431
 124   1.0000      -0.211189        -5.7468
 125   1.0000      -0.203737        -5.5440
 126   1.0000      -0.193685        -5.2704
 127   0.0000      -0.184093        -5.0094
 128   0.0000      -0.166232        -4.5234
 129   0.0000      -0.158350        -4.3089
 130   0.0000      -0.150675        -4.1001
 131   0.0000      -0.129552        -3.5253

                 SPIN DOWN ORBITALS
  NO   OCC          E(Eh)            E(eV)
   0   1.0000    -214.506010     -5837.0053
   1   1.0000     -24.265731      -660.3041
   2   1.0000     -20.642501      -561.7110
   3   1.0000     -20.638175      -561.5933
   4   1.0000     -20.637754      -561.5818
   5   1.0000      -4.031596      -109.7053
   6   1.0000      -4.031592      -109.7052
   7   1.0000      -4.026021      -109.5536
   8   1.0000      -4.025792      -109.5474
   9   1.0000      -4.022670      -109.4624
  10   1.0000      -4.022578      -109.4599
  11   1.0000      -4.021301      -109.4252
  12   1.0000      -4.021266      -109.4242
  13   1.0000      -4.019647      -109.3802
  14   1.0000      -4.013714      -109.2187
  15   1.0000      -4.012787      -109.1935
  16   1.0000      -4.012639      -109.1894
  17   1.0000      -2.690352       -73.2082
  18   1.0000      -2.246461       -61.1293
  19   1.0000      -2.246431       -61.1285
  20   1.0000      -2.246057       -61.1183
  21   1.0000      -2.245969       -61.1159
  22   1.0000      -2.242592       -61.0240
  23   1.0000      -2.242034       -61.0088
  24   1.0000      -2.240913       -60.9783
  25   1.0000      -2.240607       -60.9700
  26   1.0000      -2.238821       -60.9214
  27   1.0000      -2.238788       -60.9205
  28   1.0000      -2.238501       -60.9127
  29   1.0000      -2.238240       -60.9056
  30   1.0000      -2.237849       -60.8950
  31   1.0000      -2.237782       -60.8931
  32   1.0000      -2.237440       -60.8838
  33   1.0000      -2.237303       -60.8801
  34   1.0000      -2.236765       -60.8655
  35   1.0000      -2.235985       -60.8442
  36   1.0000      -2.235143       -60.8213
  37   1.0000      -2.234999       -60.8174
  38   1.0000      -2.234278       -60.7978
  39   1.0000      -2.232622       -60.7527
  40   1.0000      -2.232131       -60.7394
  41   1.0000      -2.231097       -60.7112
  42   1.0000      -2.229790       -60.6757
  43   1.0000      -2.229747       -60.6745
  44   1.0000      -2.229547       -60.6691
  45   1.0000      -2.229500       -60.6678
  46   1.0000      -2.228233       -60.6333
  47   1.0000      -2.227896       -60.6241
  48   1.0000      -2.227529       -60.6141
  49   1.0000      -2.226712       -60.5919
  50   1.0000      -2.225875       -60.5691
  51   1.0000      -2.224536       -60.5327
  52   1.0000      -2.221466       -60.4492
  53   1.0000      -2.219936       -60.4075
  54   1.0000      -1.687766       -45.9265
  55   1.0000      -1.678469       -45.6735
  56   1.0000      -1.677719       -45.6530
  57   1.0000      -0.413101       -11.2410
  58   1.0000      -0.377617       -10.2755
  59   1.0000      -0.373303       -10.1581
  60   1.0000      -0.364481        -9.9180
  61   1.0000      -0.359486        -9.7821
  62   1.0000      -0.355780        -9.6813
  63   1.0000      -0.353302        -9.6138
  64   1.0000      -0.353007        -9.6058
  65   1.0000      -0.351960        -9.5773
  66   1.0000      -0.345323        -9.3967
  67   1.0000      -0.342438        -9.3182
  68   1.0000      -0.341738        -9.2992
  69   1.0000      -0.341686        -9.2978
  70   1.0000      -0.337443        -9.1823
  71   1.0000      -0.337373        -9.1804
  72   1.0000      -0.332348        -9.0436
  73   1.0000      -0.332095        -9.0368
  74   1.0000      -0.328649        -8.9430
  75   1.0000      -0.328399        -8.9362
  76   1.0000      -0.324625        -8.8335
  77   1.0000      -0.322212        -8.7678
  78   1.0000      -0.319854        -8.7037
  79   1.0000      -0.316349        -8.6083
  80   1.0000      -0.313070        -8.5191
  81   1.0000      -0.308826        -8.4036
  82   1.0000      -0.304330        -8.2812
  83   1.0000      -0.303673        -8.2634
  84   1.0000      -0.302316        -8.2264
  85   1.0000      -0.301827        -8.2131
  86   1.0000      -0.295991        -8.0543
  87   1.0000      -0.295347        -8.0368
  88   1.0000      -0.290841        -7.9142
  89   1.0000      -0.289711        -7.8834
  90   1.0000      -0.286964        -7.8087
  91   1.0000      -0.283426        -7.7124
  92   1.0000      -0.281385        -7.6569
  93   1.0000      -0.279778        -7.6131
  94   1.0000      -0.275514        -7.4971
  95   1.0000      -0.275497        -7.4967
  96   1.0000      -0.273669        -7.4469
  97   1.0000      -0.272496        -7.4150
  98   1.0000      -0.270978        -7.3737
  99   1.0000      -0.269083        -7.3221
 100   1.0000      -0.266476        -7.2512
 101   1.0000      -0.265014        -7.2114
 102   1.0000      -0.264690        -7.2026
 103   1.0000      -0.262910        -7.1541
 104   1.0000      -0.260206        -7.0806
 105   1.0000      -0.258287        -7.0283
 106   1.0000      -0.257680        -7.0118
 107   1.0000      -0.256573        -6.9817
 108   1.0000      -0.256116        -6.9693
 109   1.0000      -0.254039        -6.9127
 110   1.0000      -0.253285        -6.8922
 111   1.0000      -0.251566        -6.8455
 112   1.0000      -0.248273        -6.7559
 113   1.0000      -0.247172        -6.7259
 114   1.0000      -0.246739        -6.7141
 115   1.0000      -0.245491        -6.6802
 116   1.0000      -0.241955        -6.5839
 117   1.0000      -0.241204        -6.5635
 118   1.0000      -0.238069        -6.4782
 119   1.0000      -0.236169        -6.4265
 120   1.0000      -0.228261        -6.2113
 121   1.0000      -0.212826        -5.7913
 122   1.0000      -0.204427        -5.5628
 123   1.0000      -0.201357        -5.4792
 124   1.0000      -0.180667        -4.9162
 125   0.0000      -0.161630        -4.3982
 126   0.0000      -0.139529        -3.7968
 127   0.0000      -0.127971        -3.4823
 128   0.0000      -0.120048        -3.2667
 129   0.0000      -0.116531        -3.1710

MULLIKEN ATOMIC CHARGES AND SPIN POPULATIONS
--------------------------------------------
   0 Au:    0.427808   -0.097125
   1 Au:    0.329926   -0.115141
   2 Au:    0.286661   -0.104421
   3 Au:    0.367202   -0.090884
   4 Au:    0.329283   -0.115396
   5 Au:    0.368284   -0.090876
   6 Au:    0.315241   -0.048840
   7 Au:    0.296388   -0.033001
   8 Au:    0.315511   -0.048572
   9 Au:    0.102871    0.036986
  10 Au:    0.297084   -0.032821
  11 Au:    0.419569   -0.104241
  12 Cr:   -3.855828    2.844332
Sum of atomic charges         :   -0.0000000

LOEWDIN ATOMIC CHARGES AND SPIN POPULATIONS
-------------------------------------------
   0 Au:    0.094414   -0.119479
   1 Au:    0.110631   -0.115394
   2 Au:    0.066697   -0.078422
   3 Au:    0.129019   -0.094085
   4 Au:    0.110816   -0.115517
   5 Au:    0.129272   -0.094183
   6 Au:    0.053999   -0.041305
   7 Au:    0.157444   -0.054664
   8 Au:    0.054561   -0.041193
   9 Au:    0.078792   -0.034922
  10 Au:    0.157558   -0.054589
  11 Au:    0.050153   -0.084108
  12 Cr:   -1.193355    2.927861

  Mayer bond orders larger than 0.100000
B(  0-Au,  1-Au) :   0.2131 B(  0-Au,  3-Au) :   0.2244 B(  0-Au,  4-Au) :   0.2123
B(  0-Au,  5-Au) :   0.2243 B(  0-Au, 12-Cr) :   0.5438 B(  1-Au,  4-Au) :   0.2243
B(  1-Au, 10-Au) :   0.3137 B(  1-Au, 12-Cr) :   0.6117 B(  2-Au,  3-Au) :   0.2243
B(  2-Au,  5-Au) :   0.2230 B(  2-Au,  6-Au) :   0.2083 B(  2-Au,  8-Au) :   0.2080
B(  2-Au,  9-Au) :   0.2733 B(  2-Au, 12-Cr) :   0.4064 B(  3-Au,  5-Au) :   0.1294
B(  3-Au,  8-Au) :   0.2388 B(  3-Au, 12-Cr) :   0.7349 B(  4-Au,  7-Au) :   0.3140
B(  4-Au, 12-Cr) :   0.6124 B(  5-Au,  6-Au) :   0.2402 B(  5-Au, 12-Cr) :   0.7362
B(  6-Au,  7-Au) :   0.2549 B(  6-Au,  9-Au) :   0.2357 B(  6-Au, 11-Au) :   0.1495
B(  6-Au, 12-Cr) :   0.5392 B(  7-Au, 11-Au) :   0.2137 B(  7-Au, 12-Cr) :   0.6975
B(  8-Au,  9-Au) :   0.2344 B(  8-Au, 10-Au) :   0.2565 B(  8-Au, 11-Au) :   0.1499
B(  8-Au, 12-Cr) :   0.5398 B(  9-Au, 11-Au) :   0.2952 B(  9-Au, 12-Cr) :   0.4521
B( 10-Au, 11-Au) :   0.2134 B( 10-Au, 12-Cr) :   0.6977 B( 11-Au, 12-Cr) :   0.4963

FINAL SINGLE POINT ENERGY     -2674.142750506290

DIPOLE MOMENT
-------------
                                X             Y             Z
Electronic contribution:     -5.49809      12.69528     -17.44044
Nuclear contribution   :      5.45310     -12.57490      17.30927
                        -----------------------------------------
Total Dipole Moment    :     -0.04499       0.12038      -0.13117
                        -----------------------------------------
Magnitude (a.u.)       :      0.18363
Magnitude (Debye)      :      0.46676

Rotational constants in cm-1:     0.001646     0.001225     0.001075
Rotational constants in MHz :    49.331643    36.724713    32.213157

                             ****ORCA TERMINATED NORMALLY****
TOTAL RUN TIME: 0 days 1 hours 12 minutes 8 seconds 661 msec
