                         Program Version 5.0.3 -  RELEASE  -
|  1> !R2SCAN def2-TZVP VERYSLOWCONV
|  2> !KDIIS
|  3> %scf
|  4>   AutoTRAHIter 200
|  5>   maxiter 400
|  6> end
|  7>
|  8> %pal nprocs 6 end
|  9>
| 10> *xyzfile 0 5 pbe.xyz
| 11>
| 12> $new_job
| 13>
| 14> !R2SCAN def2-TZVP VERYSLOWCONV
| 15> !KDIIS
| 16> %scf
| 17>   AutoTRAHIter 200
| 18>   maxiter 400
| 19> end
| 20>
| 21>
| 22> %pal nprocs 6 end
| 23>
| 24> *xyzfile 0 3 pbe.xyz
| 25>
| 26>
| 27>
| 28>
| 29>
| 30>                          ****END OF INPUT****
 Total Charge           Charge          ....    0
 Multiplicity           Mult            ....    5
 Number of Electrons    NEL             ....  252
FINAL SINGLE POINT ENERGY     -2674.581767253442

CARTESIAN COORDINATES (ANGSTROEM)
---------------------------------
  Au     7.954869    8.933313   10.802903
  Au     9.548569    6.908858    9.560746
  Au     6.799053   11.211120    6.715001
  Au     8.781465   10.528479    8.657953
  Au     6.870052    6.397393   10.036346
  Au     5.950448    9.991148    9.161575
  Au     5.392492    8.811109    6.708986
  Au     6.024995    6.133859    7.485314
  Au     8.874258    9.466716    6.090414
  Au     6.645180    9.768005    4.327399
  Au     9.525045    6.792965    6.862911
  Au     7.281990    7.234965    5.218692
  Cr     7.626051    8.156590    8.128798

 Multiplicity           Mult            ....    3
 Number of Electrons    NEL             ....  252
 Basis Dimension        Dim             ....  525

ORBITAL ENERGIES
----------------
                 SPIN UP ORBITALS
  NO   OCC          E(Eh)            E(eV)
   0   1.0000    -215.300879     -5858.6348
   1   1.0000     -24.603243      -669.4883
   2   1.0000     -20.870978      -567.9282
   3   1.0000     -20.868987      -567.8740
   4   1.0000     -20.868796      -567.8688
   5   1.0000      -4.122332      -112.1744
   6   1.0000      -4.122322      -112.1741
   7   1.0000      -4.116581      -112.0179
   8   1.0000      -4.116463      -112.0146
   9   1.0000      -4.113291      -111.9283
  10   1.0000      -4.113189      -111.9256
  11   1.0000      -4.111810      -111.8880
  12   1.0000      -4.111767      -111.8869
  13   1.0000      -4.110415      -111.8501
  14   1.0000      -4.103230      -111.6546
  15   1.0000      -4.102699      -111.6401
  16   1.0000      -4.102532      -111.6356
  17   1.0000      -2.918715       -79.4223
  18   1.0000      -2.310405       -62.8693
  19   1.0000      -2.310346       -62.8677
  20   1.0000      -2.309442       -62.8431
  21   1.0000      -2.309323       -62.8399
  22   1.0000      -2.306508       -62.7633
  23   1.0000      -2.305898       -62.7467
  24   1.0000      -2.304723       -62.7147
  25   1.0000      -2.304312       -62.7035
  26   1.0000      -2.302590       -62.6567
  27   1.0000      -2.302127       -62.6441
  28   1.0000      -2.302008       -62.6408
  29   1.0000      -2.301747       -62.6337
  30   1.0000      -2.301695       -62.6323
  31   1.0000      -2.301545       -62.6282
  32   1.0000      -2.301012       -62.6137
  33   1.0000      -2.300920       -62.6112
  34   1.0000      -2.300141       -62.5900
  35   1.0000      -2.299109       -62.5619
  36   1.0000      -2.298219       -62.5377
  37   1.0000      -2.298011       -62.5321
  38   1.0000      -2.297832       -62.5272
  39   1.0000      -2.296109       -62.4803
  40   1.0000      -2.295767       -62.4710
  41   1.0000      -2.294681       -62.4414
  42   1.0000      -2.293354       -62.4053
  43   1.0000      -2.293149       -62.3997
  44   1.0000      -2.293069       -62.3976
  45   1.0000      -2.292660       -62.3864
  46   1.0000      -2.291199       -62.3467
  47   1.0000      -2.289788       -62.3083
  48   1.0000      -2.289661       -62.3048
  49   1.0000      -2.289186       -62.2919
  50   1.0000      -2.288173       -62.2643
  51   1.0000      -2.286777       -62.2264
  52   1.0000      -2.284521       -62.1650
  53   1.0000      -2.282886       -62.1205
  54   1.0000      -1.866904       -50.8010
  55   1.0000      -1.864933       -50.7474
  56   1.0000      -1.863419       -50.7062
  57   1.0000      -0.421767       -11.4769
  58   1.0000      -0.384812       -10.4713
  59   1.0000      -0.381834       -10.3902
  60   1.0000      -0.371241       -10.1020
  61   1.0000      -0.367605       -10.0030
  62   1.0000      -0.366560        -9.9746
  63   1.0000      -0.363121        -9.8810
  64   1.0000      -0.361390        -9.8339
  65   1.0000      -0.360007        -9.7963
  66   1.0000      -0.358200        -9.7471
  67   1.0000      -0.351297        -9.5593
  68   1.0000      -0.350745        -9.5443
  69   1.0000      -0.350268        -9.5313
  70   1.0000      -0.347280        -9.4500
  71   1.0000      -0.346743        -9.4353
  72   1.0000      -0.344383        -9.3711
  73   1.0000      -0.341132        -9.2827
  74   1.0000      -0.337683        -9.1888
  75   1.0000      -0.337134        -9.1739
  76   1.0000      -0.335228        -9.1220
  77   1.0000      -0.332854        -9.0574
  78   1.0000      -0.327899        -8.9226
  79   1.0000      -0.324077        -8.8186
  80   1.0000      -0.321357        -8.7446
  81   1.0000      -0.316285        -8.6065
  82   1.0000      -0.313015        -8.5176
  83   1.0000      -0.312219        -8.4959
  84   1.0000      -0.311211        -8.4685
  85   1.0000      -0.309928        -8.4336
  86   1.0000      -0.306317        -8.3353
  87   1.0000      -0.305473        -8.3123
  88   1.0000      -0.301230        -8.1969
  89   1.0000      -0.298833        -8.1316
  90   1.0000      -0.295398        -8.0382
  91   1.0000      -0.291496        -7.9320
  92   1.0000      -0.288746        -7.8572
  93   1.0000      -0.287757        -7.8303
  94   1.0000      -0.283316        -7.7094
  95   1.0000      -0.282774        -7.6947
  96   1.0000      -0.280596        -7.6354
  97   1.0000      -0.280155        -7.6234
  98   1.0000      -0.277550        -7.5525
  99   1.0000      -0.276452        -7.5226
 100   1.0000      -0.272713        -7.4209
 101   1.0000      -0.272499        -7.4151
 102   1.0000      -0.272016        -7.4019
 103   1.0000      -0.270140        -7.3509
 104   1.0000      -0.266255        -7.2452
 105   1.0000      -0.265177        -7.2158
 106   1.0000      -0.264316        -7.1924
 107   1.0000      -0.262913        -7.1542
 108   1.0000      -0.262333        -7.1384
 109   1.0000      -0.260245        -7.0816
 110   1.0000      -0.259472        -7.0606
 111   1.0000      -0.257180        -6.9982
 112   1.0000      -0.254141        -6.9155
 113   1.0000      -0.253243        -6.8911
 114   1.0000      -0.252925        -6.8824
 115   1.0000      -0.251243        -6.8367
 116   1.0000      -0.247812        -6.7433
 117   1.0000      -0.245009        -6.6670
 118   1.0000      -0.243309        -6.6208
 119   1.0000      -0.241772        -6.5790
 120   1.0000      -0.230390        -6.2692
 121   1.0000      -0.229864        -6.2549
 122   1.0000      -0.226334        -6.1589
 123   1.0000      -0.217777        -5.9260
 124   1.0000      -0.214033        -5.8241
 125   1.0000      -0.210403        -5.7253
 126   1.0000      -0.197992        -5.3876
 127   0.0000      -0.182658        -4.9704
 128   0.0000      -0.162714        -4.4277
 129   0.0000      -0.155535        -4.2323
 130   0.0000      -0.146748        -3.9932
 131   0.0000      -0.125063        -3.4031

                 SPIN DOWN ORBITALS
  NO   OCC          E(Eh)            E(eV)
   0   1.0000    -215.300266     -5858.6181
   1   1.0000     -24.543650      -667.8667
   2   1.0000     -20.826414      -566.7155
   3   1.0000     -20.823058      -566.6242
   4   1.0000     -20.821570      -566.5837
   5   1.0000      -4.122015      -112.1657
   6   1.0000      -4.122007      -112.1655
   7   1.0000      -4.117125      -112.0327
   8   1.0000      -4.116725      -112.0218
   9   1.0000      -4.113328      -111.9293
  10   1.0000      -4.113225      -111.9265
  11   1.0000      -4.111295      -111.8740
  12   1.0000      -4.111252      -111.8728
  13   1.0000      -4.110801      -111.8606
  14   1.0000      -4.104227      -111.6817
  15   1.0000      -4.103033      -111.6492
  16   1.0000      -4.102867      -111.6447
  17   1.0000      -2.763009       -75.1853
  18   1.0000      -2.309553       -62.8461
  19   1.0000      -2.309487       -62.8443
  20   1.0000      -2.309316       -62.8397
  21   1.0000      -2.309217       -62.8370
  22   1.0000      -2.306227       -62.7556
  23   1.0000      -2.305525       -62.7365
  24   1.0000      -2.304655       -62.7128
  25   1.0000      -2.304319       -62.7037
  26   1.0000      -2.302626       -62.6577
  27   1.0000      -2.302566       -62.6560
  28   1.0000      -2.301977       -62.6400
  29   1.0000      -2.301771       -62.6344
  30   1.0000      -2.301559       -62.6286
  31   1.0000      -2.300956       -62.6122
  32   1.0000      -2.300185       -62.5912
  33   1.0000      -2.300070       -62.5881
  34   1.0000      -2.300030       -62.5870
  35   1.0000      -2.299183       -62.5639
  36   1.0000      -2.298315       -62.5403
  37   1.0000      -2.297783       -62.5259
  38   1.0000      -2.297697       -62.5235
  39   1.0000      -2.296100       -62.4800
  40   1.0000      -2.295754       -62.4706
  41   1.0000      -2.294709       -62.4422
  42   1.0000      -2.293592       -62.4118
  43   1.0000      -2.292703       -62.3876
  44   1.0000      -2.292449       -62.3807
  45   1.0000      -2.292395       -62.3792
  46   1.0000      -2.291128       -62.3448
  47   1.0000      -2.290951       -62.3400
  48   1.0000      -2.290831       -62.3367
  49   1.0000      -2.289331       -62.2959
  50   1.0000      -2.288533       -62.2741
  51   1.0000      -2.287856       -62.2557
  52   1.0000      -2.284732       -62.1707
  53   1.0000      -2.283127       -62.1270
  54   1.0000      -1.715585       -46.6834
  55   1.0000      -1.708116       -46.4802
  56   1.0000      -1.705402       -46.4064
  57   1.0000      -0.417160       -11.3515
  58   1.0000      -0.383712       -10.4413
  59   1.0000      -0.379590       -10.3292
  60   1.0000      -0.371731       -10.1153
  61   1.0000      -0.367535       -10.0011
  62   1.0000      -0.363841        -9.9006
  63   1.0000      -0.361979        -9.8499
  64   1.0000      -0.361936        -9.8488
  65   1.0000      -0.360651        -9.8138
  66   1.0000      -0.353556        -9.6207
  67   1.0000      -0.351627        -9.5683
  68   1.0000      -0.351098        -9.5539
  69   1.0000      -0.350624        -9.5410
  70   1.0000      -0.345916        -9.4129
  71   1.0000      -0.345570        -9.4034
  72   1.0000      -0.341207        -9.2847
  73   1.0000      -0.340941        -9.2775
  74   1.0000      -0.337626        -9.1873
  75   1.0000      -0.337491        -9.1836
  76   1.0000      -0.333778        -9.0826
  77   1.0000      -0.330652        -8.9975
  78   1.0000      -0.328615        -8.9421
  79   1.0000      -0.325584        -8.8596
  80   1.0000      -0.322026        -8.7628
  81   1.0000      -0.317946        -8.6517
  82   1.0000      -0.313157        -8.5214
  83   1.0000      -0.312680        -8.5085
  84   1.0000      -0.310922        -8.4606
  85   1.0000      -0.310594        -8.4517
  86   1.0000      -0.304230        -8.2785
  87   1.0000      -0.303466        -8.2577
  88   1.0000      -0.298856        -8.1323
  89   1.0000      -0.297818        -8.1040
  90   1.0000      -0.295051        -8.0287
  91   1.0000      -0.291604        -7.9350
  92   1.0000      -0.289677        -7.8825
  93   1.0000      -0.288338        -7.8461
  94   1.0000      -0.283840        -7.7237
  95   1.0000      -0.283722        -7.7205
  96   1.0000      -0.281628        -7.6635
  97   1.0000      -0.281025        -7.6471
  98   1.0000      -0.278870        -7.5884
  99   1.0000      -0.277194        -7.5428
 100   1.0000      -0.274216        -7.4618
 101   1.0000      -0.273353        -7.4383
 102   1.0000      -0.273141        -7.4325
 103   1.0000      -0.270442        -7.3591
 104   1.0000      -0.268376        -7.3029
 105   1.0000      -0.266406        -7.2493
 106   1.0000      -0.265688        -7.2297
 107   1.0000      -0.264188        -7.1889
 108   1.0000      -0.263858        -7.1799
 109   1.0000      -0.261914        -7.1270
 110   1.0000      -0.261275        -7.1096
 111   1.0000      -0.258746        -7.0408
 112   1.0000      -0.255363        -6.9488
 113   1.0000      -0.255026        -6.9396
 114   1.0000      -0.254256        -6.9187
 115   1.0000      -0.252542        -6.8720
 116   1.0000      -0.248596        -6.7646
 117   1.0000      -0.247676        -6.7396
 118   1.0000      -0.244905        -6.6642
 119   1.0000      -0.243214        -6.6182
 120   1.0000      -0.233867        -6.3638
 121   1.0000      -0.214459        -5.8357
 122   1.0000      -0.206114        -5.6086
 123   1.0000      -0.203209        -5.5296
 124   1.0000      -0.180723        -4.9177
 125   0.0000      -0.157912        -4.2970
 126   0.0000      -0.134411        -3.6575
 127   0.0000      -0.119912        -3.2630
 128   0.0000      -0.110039        -2.9943
 129   0.0000      -0.103175        -2.8075

MULLIKEN ATOMIC CHARGES AND SPIN POPULATIONS
--------------------------------------------
   0 Au:    0.387723   -0.143741
   1 Au:    0.290190   -0.161997
   2 Au:    0.273257   -0.125038
   3 Au:    0.322081   -0.135032
   4 Au:    0.289790   -0.162088
   5 Au:    0.322824   -0.135072
   6 Au:    0.304939   -0.067667
   7 Au:    0.264815   -0.050849
   8 Au:    0.305282   -0.067090
   9 Au:    0.070351    0.049470
  10 Au:    0.265495   -0.050759
  11 Au:    0.386928   -0.144977
  12 Cr:   -3.483676    3.194839
Sum of atomic charges         :   -0.0000000

LOEWDIN ATOMIC CHARGES AND SPIN POPULATIONS
-------------------------------------------
   0 Au:    0.093701   -0.150704
   1 Au:    0.104337   -0.141481
   2 Au:    0.069396   -0.090130
   3 Au:    0.123052   -0.122068
   4 Au:    0.104505   -0.141600
   5 Au:    0.123277   -0.122181
   6 Au:    0.050575   -0.056447
   7 Au:    0.149591   -0.072948
   8 Au:    0.051136   -0.056298
   9 Au:    0.074178   -0.038950
  10 Au:    0.149719   -0.072906
  11 Au:    0.050789   -0.107421
  12 Cr:   -1.144255    3.173133

  Mayer bond orders larger than 0.100000
B(  0-Au,  1-Au) :   0.2052 B(  0-Au,  3-Au) :   0.2109 B(  0-Au,  4-Au) :   0.2043
B(  0-Au,  5-Au) :   0.2108 B(  0-Au, 12-Cr) :   0.5369 B(  1-Au,  4-Au) :   0.2073
B(  1-Au, 10-Au) :   0.3000 B(  1-Au, 12-Cr) :   0.5965 B(  2-Au,  3-Au) :   0.2156
B(  2-Au,  5-Au) :   0.2142 B(  2-Au,  6-Au) :   0.1990 B(  2-Au,  8-Au) :   0.1988
B(  2-Au,  9-Au) :   0.2642 B(  2-Au, 12-Cr) :   0.3885 B(  3-Au,  5-Au) :   0.1145
B(  3-Au,  8-Au) :   0.2320 B(  3-Au, 12-Cr) :   0.7112 B(  4-Au,  7-Au) :   0.3003
B(  4-Au, 12-Cr) :   0.5970 B(  5-Au,  6-Au) :   0.2334 B(  5-Au, 12-Cr) :   0.7126
B(  6-Au,  7-Au) :   0.2512 B(  6-Au,  9-Au) :   0.2191 B(  6-Au, 11-Au) :   0.1426
B(  6-Au, 12-Cr) :   0.5222 B(  7-Au, 11-Au) :   0.2095 B(  7-Au, 12-Cr) :   0.6783
B(  8-Au,  9-Au) :   0.2178 B(  8-Au, 10-Au) :   0.2529 B(  8-Au, 11-Au) :   0.1430
B(  8-Au, 12-Cr) :   0.5227 B(  9-Au, 11-Au) :   0.2794 B(  9-Au, 12-Cr) :   0.4261
B( 10-Au, 11-Au) :   0.2092 B( 10-Au, 12-Cr) :   0.6786 B( 11-Au, 12-Cr) :   0.4855

FINAL SINGLE POINT ENERGY     -2674.575754001961

DIPOLE MOMENT
-------------
                                X             Y             Z
Electronic contribution:     -5.50258      12.72392     -17.43687
Nuclear contribution   :      5.45310     -12.57490      17.30927
                        -----------------------------------------
Total Dipole Moment    :     -0.04948       0.14902      -0.12760
                        -----------------------------------------
Magnitude (a.u.)       :      0.20233
Magnitude (Debye)      :      0.51429

Rotational constants in cm-1:     0.001646     0.001225     0.001075
Rotational constants in MHz :    49.331643    36.724713    32.213157

                             ****ORCA TERMINATED NORMALLY****
TOTAL RUN TIME: 0 days 0 hours 23 minutes 35 seconds 382 msec
