                         Program Version 5.0.3 -  RELEASE  -
|  1> !SC-NEVPT2 def2-TZVP def2-TZVP/C
|  2> !MOREAD RIJCOSX def2/J
|  3> %maxcore 4000
|  4> %moinp "casscf.gbw"
|  5> %pal nprocs 6 end
|  6>
|  7> %casscf
|  8>  mult 6,4
|  9>  bweight 1,1
| 10>  nroots 1,24
| 11>  nel 5
| 12>  norb 5
| 13>  ptsettings
| 14>   d4tpre 1e-14 # default = 1e-10
| 15>   d3tpre 1e-14
| 16>  end
| 17>  rel
| 18>    dosoc true
| 19>    gtensor true
| 20>  end
| 21> end
| 22>
| 23>
| 24> *xyzfile 0 6 pbe.xyz
| 25>
| 26>
| 27>                          ****END OF INPUT****

CARTESIAN COORDINATES (ANGSTROEM)
---------------------------------
  Au     7.885834   10.320557    5.741352
  Au     9.608171    7.596603    4.984659
  Au    10.619518   10.211852    5.438320
  Au    11.868337    8.093710    6.639601
  Au    10.284686    6.416290    8.130275
  Au     7.327568    6.345231    5.059626
  Au     9.738235   10.395472    9.644058
  Au     8.540263    7.910657    9.751279
  Au     7.551538    6.254049    7.876996
  Au     5.117690    5.878464    6.629553
  Au     6.160525    8.402738    6.696834
  Au     7.273796   10.079403    8.470003
  Mn     9.384145    8.832404    7.389117

 Total Charge           Charge          ....    0
 Multiplicity           Mult            ....    6
 Number of Electrons    NEL             ....  253
 Basis Dimension        Dim             ....  525

ORBITAL ENERGIES
----------------

  NO   OCC          E(Eh)            E(eV)
   0   2.0000    -240.555196     -6545.8397
   1   2.0000     -29.132056      -792.7235
   2   2.0000     -24.837158      -675.8534
   3   2.0000     -24.836731      -675.8418
   4   2.0000     -24.836552      -675.8369
   5   2.0000      -4.729128      -128.6861
   6   2.0000      -4.728784      -128.6767
   7   2.0000      -4.718183      -128.3883
   8   2.0000      -4.717740      -128.3762
   9   2.0000      -4.715780      -128.3229
  10   2.0000      -4.711389      -128.2034
  11   2.0000      -4.709746      -128.1587
  12   2.0000      -4.703572      -127.9907
  13   2.0000      -4.702756      -127.9685
  14   2.0000      -4.701309      -127.9291
  15   2.0000      -4.700938      -127.9190
  16   2.0000      -4.689951      -127.6201
  17   2.0000      -3.837701      -104.4292
  18   2.0000      -2.768761       -75.3418
  19   2.0000      -2.767526       -75.3082
  20   2.0000      -2.766948       -75.2925
  21   2.0000      -2.764857       -75.2356
  22   2.0000      -2.764326       -75.2211
  23   2.0000      -2.761473       -75.1435
  24   2.0000      -2.757407       -75.0329
  25   2.0000      -2.757111       -75.0248
  26   2.0000      -2.755350       -74.9769
  27   2.0000      -2.754869       -74.9638
  28   2.0000      -2.753388       -74.9235
  29   2.0000      -2.751661       -74.8765
  30   2.0000      -2.751399       -74.8694
  31   2.0000      -2.749498       -74.8177
  32   2.0000      -2.748849       -74.8000
  33   2.0000      -2.748541       -74.7916
  34   2.0000      -2.747523       -74.7639
  35   2.0000      -2.746748       -74.7428
  36   2.0000      -2.744618       -74.6849
  37   2.0000      -2.743497       -74.6543
  38   2.0000      -2.743091       -74.6433
  39   2.0000      -2.742663       -74.6317
  40   2.0000      -2.740242       -74.5658
  41   2.0000      -2.739833       -74.5547
  42   2.0000      -2.738715       -74.5242
  43   2.0000      -2.738473       -74.5176
  44   2.0000      -2.737865       -74.5011
  45   2.0000      -2.735558       -74.4383
  46   2.0000      -2.735113       -74.4262
  47   2.0000      -2.734725       -74.4156
  48   2.0000      -2.734299       -74.4041
  49   2.0000      -2.733695       -74.3876
  50   2.0000      -2.732266       -74.3487
  51   2.0000      -2.725335       -74.1601
  52   2.0000      -2.724220       -74.1298
  53   2.0000      -2.723040       -74.0977
  54   2.0000      -2.506071       -68.1937
  55   2.0000      -2.505654       -68.1823
  56   2.0000      -2.504827       -68.1598
  57   2.0000      -0.572431       -15.5766
  58   2.0000      -0.566141       -15.4055
  59   2.0000      -0.565215       -15.3803
  60   2.0000      -0.556667       -15.1477
  61   2.0000      -0.546603       -14.8738
  62   2.0000      -0.542660       -14.7665
  63   2.0000      -0.540866       -14.7177
  64   2.0000      -0.540566       -14.7095
  65   2.0000      -0.538212       -14.6455
  66   2.0000      -0.531001       -14.4493
  67   2.0000      -0.530431       -14.4338
  68   2.0000      -0.527356       -14.3501
  69   2.0000      -0.523130       -14.2351
  70   2.0000      -0.521745       -14.1974
  71   2.0000      -0.517771       -14.0893
  72   2.0000      -0.517530       -14.0827
  73   2.0000      -0.515938       -14.0394
  74   2.0000      -0.509627       -13.8677
  75   2.0000      -0.507526       -13.8105
  76   2.0000      -0.504867       -13.7381
  77   2.0000      -0.501843       -13.6558
  78   2.0000      -0.500331       -13.6147
  79   2.0000      -0.498660       -13.5692
  80   2.0000      -0.496201       -13.5023
  81   2.0000      -0.492683       -13.4066
  82   2.0000      -0.484803       -13.1922
  83   2.0000      -0.482343       -13.1252
  84   2.0000      -0.479210       -13.0400
  85   2.0000      -0.477448       -12.9920
  86   2.0000      -0.477124       -12.9832
  87   2.0000      -0.474253       -12.9051
  88   2.0000      -0.471030       -12.8174
  89   2.0000      -0.466938       -12.7060
  90   2.0000      -0.466614       -12.6972
  91   2.0000      -0.464362       -12.6359
  92   2.0000      -0.463373       -12.6090
  93   2.0000      -0.461986       -12.5713
  94   2.0000      -0.455940       -12.4068
  95   2.0000      -0.454378       -12.3642
  96   2.0000      -0.452098       -12.3022
  97   2.0000      -0.451342       -12.2816
  98   2.0000      -0.447519       -12.1776
  99   2.0000      -0.446415       -12.1476
 100   2.0000      -0.445199       -12.1145
 101   2.0000      -0.442466       -12.0401
 102   2.0000      -0.439322       -11.9545
 103   2.0000      -0.437457       -11.9038
 104   2.0000      -0.435873       -11.8607
 105   2.0000      -0.433896       -11.8069
 106   2.0000      -0.433114       -11.7856
 107   2.0000      -0.431573       -11.7437
 108   2.0000      -0.430882       -11.7249
 109   2.0000      -0.428491       -11.6598
 110   2.0000      -0.422246       -11.4899
 111   2.0000      -0.418649       -11.3920
 112   2.0000      -0.416888       -11.3441
 113   2.0000      -0.416325       -11.3288
 114   2.0000      -0.400477       -10.8975
 115   2.0000      -0.398980       -10.8568
 116   2.0000      -0.390665       -10.6305
 117   2.0000      -0.385216       -10.4823
 118   2.0000      -0.358620        -9.7586
 119   2.0000      -0.351682        -9.5698
 120   2.0000      -0.328162        -8.9297
 121   2.0000      -0.258640        -7.0380
 122   2.0000      -0.231334        -6.2949
 123   2.0000      -0.225270        -6.1299
 124   1.0000      -0.154619        -4.2074
 125   1.0000      -0.159188        -4.3317
 126   1.0000      -0.160391        -4.3645
 127   1.0000      -0.148103        -4.0301
 128   1.0000      -0.152806        -4.1581
 129   0.0000      -0.038730        -1.0539
 130   0.0000      -0.014133        -0.3846
 131   0.0000      -0.008070        -0.2196
 132   0.0000       0.006654         0.1811
 133   0.0000       0.014300         0.3891

MULLIKEN ATOMIC CHARGES AND SPIN DENSITIES
------------------------------------------
   0 Au:    0.404499    0.008132
   1 Au:   -0.191387    0.010030
   2 Au:    0.123253    0.012311
   3 Au:    0.133609    0.012162
   4 Au:    0.462467    0.008005
   5 Au:    0.131175    0.004344
   6 Au:    0.294681    0.010802
   7 Au:    0.294964    0.010275
   8 Au:   -0.536834    0.006610
   9 Au:    0.489490    0.001083
  10 Au:   -0.402448    0.006206
  11 Au:    0.260102    0.010184
  12 Mn:   -1.463570    3.899855
Sum of atomic charges       :    0.0000000

LOEWDIN ATOMIC CHARGES AND SPIN DENSITIES
-----------------------------------------
   0 Au:    0.062196    0.013797
   1 Au:   -0.107197    0.014625
   2 Au:    0.025649    0.015877
   3 Au:    0.018640    0.015663
   4 Au:    0.070227    0.013663
   5 Au:   -0.051306    0.004525
   6 Au:    0.157519    0.015335
   7 Au:    0.024975    0.015175
   8 Au:   -0.146748    0.006950
   9 Au:    0.176138    0.002019
  10 Au:   -0.131757    0.006230
  11 Au:    0.015103    0.015303
  12 Mn:   -0.113438    3.860837

  Mayer bond orders larger than 0.100000
B(  0-Au,  2-Au) :   0.2793 B(  0-Au, 10-Au) :   0.2829 B(  0-Au, 11-Au) :   0.1440
B(  0-Au, 12-Mn) :   0.3135 B(  1-Au,  2-Au) :   0.1453 B(  1-Au,  3-Au) :   0.1408
B(  1-Au,  5-Au) :   0.6438 B(  1-Au, 12-Mn) :   0.4637 B(  2-Au,  3-Au) :   0.1369
B(  2-Au, 12-Mn) :   0.4962 B(  3-Au,  4-Au) :   0.2878 B(  3-Au, 12-Mn) :   0.5036
B(  4-Au,  7-Au) :   0.1206 B(  4-Au,  8-Au) :   0.2663 B(  4-Au, 12-Mn) :   0.2980
B(  5-Au,  8-Au) :   0.2606 B(  5-Au,  9-Au) :   0.1941 B(  5-Au, 10-Au) :   0.2175
B(  6-Au,  7-Au) :   0.2249 B(  6-Au, 11-Au) :   0.2429 B(  6-Au, 12-Mn) :   0.3879
B(  7-Au,  8-Au) :   0.4304 B(  7-Au, 12-Mn) :   0.4406 B(  8-Au,  9-Au) :   0.3716
B(  8-Au, 10-Au) :   0.3633 B(  8-Au, 12-Mn) :   0.2820 B(  9-Au, 10-Au) :   0.3460
B( 10-Au, 11-Au) :   0.4332 B( 10-Au, 12-Mn) :   0.2420 B( 11-Au, 12-Mn) :   0.4463

FINAL SINGLE POINT ENERGY     -2773.472613696408

DIPOLE MOMENT
-------------
                                X             Y             Z
Electronic contribution:    -32.31155     -24.07911     -10.09884
Nuclear contribution   :     32.23969      24.50916      10.93552
                        -----------------------------------------
Total Dipole Moment    :     -0.07186       0.43005       0.83668
                        -----------------------------------------
Magnitude (a.u.)       :      0.94348
Magnitude (Debye)      :      2.39812

Rotational constants in cm-1:     0.001506     0.001134     0.001041
Rotational constants in MHz :    45.154908    33.996459    31.194614

                             ****ORCA TERMINATED NORMALLY****
TOTAL RUN TIME: 0 days 1 hours 14 minutes 6 seconds 720 msec
