                         Program Version 5.0.3 -  RELEASE  -
|  1> !RI-B2PLYP def2-TZVP def2-TZVP/C
|  2> !RIJCOSX VERYSLOWCONV
|  3>
|  4> %scf
|  5>   AutoTRAHIter 200
|  6>   maxiter 400
|  7> end
|  8>
|  9>
| 10> %pal nprocs 6 end
| 11>
| 12> *xyzfile 0 6 pbe.xyz
| 13>
| 14> $new_job
| 15>
| 16> !RI-B2PLYP def2-TZVP def2-TZVP/C
| 17> !RIJCOSX VERYSLOWCONV
| 18>
| 19> %scf
| 20>   AutoTRAHIter 200
| 21>   maxiter 400
| 22> end
| 23>
| 24>
| 25> %pal nprocs 6 end
| 26>
| 27> *xyzfile 0 4 pbe.xyz
| 28>
| 29>
| 30>
| 31>
| 32>
| 33>                          ****END OF INPUT****
 Total Charge           Charge          ....    0
 Multiplicity           Mult            ....    6
 Number of Electrons    NEL             ....  215
MP2 TOTAL ENERGY:    -2506.676977350 Eh
FINAL SINGLE POINT ENERGY     -2506.676977349871

CARTESIAN COORDINATES (ANGSTROEM)
---------------------------------
  Au     4.631770    4.526717    5.322018
  Au     8.223586    6.943650    9.914931
  Au     8.235161    6.364060    7.250870
  Au     6.777008    4.817157    9.029599
  Au     7.040797    5.975578    4.884306
  Au     6.346717    6.428192   11.921172
  Au     5.366406    7.386793    9.615230
  Au     4.540159    4.767281   10.576802
  Au     4.335894    4.074910    7.946813
  Au     4.310789    8.548416    7.538066
  Mn     5.548439    6.304048    7.025938

 Multiplicity           Mult            ....    4
 Number of Electrons    NEL             ....  215
 Basis Dimension        Dim             ....  445

ORBITAL ENERGIES
----------------
                 SPIN UP ORBITALS
  NO   OCC          E(Eh)            E(eV)
   0   1.0000    -237.622533     -6466.0379
   1   1.0000     -28.127376      -765.3848
   2   1.0000     -24.045428      -654.3094
   3   1.0000     -24.044652      -654.2883
   4   1.0000     -24.044643      -654.2880
   5   1.0000      -4.403599      -119.8280
   6   1.0000      -4.396729      -119.6411
   7   1.0000      -4.395032      -119.5949
   8   1.0000      -4.393627      -119.5567
   9   1.0000      -4.393485      -119.5528
  10   1.0000      -4.390945      -119.4837
  11   1.0000      -4.390764      -119.4788
  12   1.0000      -4.388026      -119.4043
  13   1.0000      -4.387893      -119.4006
  14   1.0000      -4.386824      -119.3716
  15   1.0000      -3.605495       -98.1105
  16   1.0000      -2.528680       -68.8089
  17   1.0000      -2.519922       -68.5706
  18   1.0000      -2.518128       -68.5217
  19   1.0000      -2.517073       -68.4930
  20   1.0000      -2.516892       -68.4881
  21   1.0000      -2.516602       -68.4802
  22   1.0000      -2.514950       -68.4353
  23   1.0000      -2.514283       -68.4171
  24   1.0000      -2.513828       -68.4047
  25   1.0000      -2.513049       -68.3835
  26   1.0000      -2.512155       -68.3592
  27   1.0000      -2.510640       -68.3180
  28   1.0000      -2.509659       -68.2913
  29   1.0000      -2.509165       -68.2779
  30   1.0000      -2.509016       -68.2738
  31   1.0000      -2.508524       -68.2604
  32   1.0000      -2.507538       -68.2336
  33   1.0000      -2.507348       -68.2284
  34   1.0000      -2.506926       -68.2169
  35   1.0000      -2.506316       -68.2003
  36   1.0000      -2.506271       -68.1991
  37   1.0000      -2.505406       -68.1756
  38   1.0000      -2.505085       -68.1668
  39   1.0000      -2.504733       -68.1573
  40   1.0000      -2.503497       -68.1236
  41   1.0000      -2.503361       -68.1199
  42   1.0000      -2.502468       -68.0956
  43   1.0000      -2.502278       -68.0904
  44   1.0000      -2.502178       -68.0877
  45   1.0000      -2.500037       -68.0295
  46   1.0000      -2.407303       -65.5060
  47   1.0000      -2.406826       -65.4931
  48   1.0000      -2.405518       -65.4575
  49   1.0000      -0.512338       -13.9414
  50   1.0000      -0.506075       -13.7710
  51   1.0000      -0.505242       -13.7483
  52   1.0000      -0.502173       -13.6648
  53   1.0000      -0.501020       -13.6334
  54   1.0000      -0.479949       -13.0601
  55   1.0000      -0.469727       -12.7819
  56   1.0000      -0.462727       -12.5914
  57   1.0000      -0.454048       -12.3553
  58   1.0000      -0.453530       -12.3412
  59   1.0000      -0.448746       -12.2110
  60   1.0000      -0.445803       -12.1309
  61   1.0000      -0.443808       -12.0766
  62   1.0000      -0.434733       -11.8297
  63   1.0000      -0.433276       -11.7900
  64   1.0000      -0.421251       -11.4628
  65   1.0000      -0.418508       -11.3882
  66   1.0000      -0.417408       -11.3582
  67   1.0000      -0.416560       -11.3352
  68   1.0000      -0.415891       -11.3170
  69   1.0000      -0.410729       -11.1765
  70   1.0000      -0.409382       -11.1399
  71   1.0000      -0.408062       -11.1039
  72   1.0000      -0.405326       -11.0295
  73   1.0000      -0.397772       -10.8239
  74   1.0000      -0.396761       -10.7964
  75   1.0000      -0.393214       -10.6999
  76   1.0000      -0.388690       -10.5768
  77   1.0000      -0.387606       -10.5473
  78   1.0000      -0.384717       -10.4687
  79   1.0000      -0.381096       -10.3701
  80   1.0000      -0.380764       -10.3611
  81   1.0000      -0.377172       -10.2634
  82   1.0000      -0.373734       -10.1698
  83   1.0000      -0.372363       -10.1325
  84   1.0000      -0.371129       -10.0989
  85   1.0000      -0.369735       -10.0610
  86   1.0000      -0.368219       -10.0198
  87   1.0000      -0.366704        -9.9785
  88   1.0000      -0.364519        -9.9191
  89   1.0000      -0.363729        -9.8976
  90   1.0000      -0.362842        -9.8734
  91   1.0000      -0.359367        -9.7789
  92   1.0000      -0.359074        -9.7709
  93   1.0000      -0.358487        -9.7549
  94   1.0000      -0.356865        -9.7108
  95   1.0000      -0.351558        -9.5664
  96   1.0000      -0.349843        -9.5197
  97   1.0000      -0.345847        -9.4110
  98   1.0000      -0.341784        -9.3004
  99   1.0000      -0.340687        -9.2706
 100   1.0000      -0.337929        -9.1955
 101   1.0000      -0.337720        -9.1898
 102   1.0000      -0.336714        -9.1625
 103   1.0000      -0.329259        -8.9596
 104   1.0000      -0.309911        -8.4331
 105   1.0000      -0.303662        -8.2631
 106   1.0000      -0.283464        -7.7135
 107   1.0000      -0.270764        -7.3679
 108   1.0000      -0.231510        -6.2997
 109   0.0000      -0.129254        -3.5172
 110   0.0000      -0.080574        -2.1925
 111   0.0000      -0.067555        -1.8383
 112   0.0000      -0.061219        -1.6659
 113   0.0000      -0.051696        -1.4067

                 SPIN DOWN ORBITALS
  NO   OCC          E(Eh)            E(eV)
   0   1.0000    -237.620399     -6465.9798
   1   1.0000     -28.025924      -762.6242
   2   1.0000     -23.951997      -651.7670
   3   1.0000     -23.951764      -651.7606
   4   1.0000     -23.951499      -651.7534
   5   1.0000      -4.403301      -119.8199
   6   1.0000      -4.398650      -119.6934
   7   1.0000      -4.394844      -119.5898
   8   1.0000      -4.393910      -119.5644
   9   1.0000      -4.393785      -119.5610
  10   1.0000      -4.390385      -119.4685
  11   1.0000      -4.390233      -119.4643
  12   1.0000      -4.389473      -119.4436
  13   1.0000      -4.389344      -119.4401
  14   1.0000      -4.387089      -119.3788
  15   1.0000      -3.319939       -90.3401
  16   1.0000      -2.527534       -68.7777
  17   1.0000      -2.519317       -68.5541
  18   1.0000      -2.518861       -68.5417
  19   1.0000      -2.517616       -68.5078
  20   1.0000      -2.515413       -68.4479
  21   1.0000      -2.515293       -68.4446
  22   1.0000      -2.514952       -68.4353
  23   1.0000      -2.514873       -68.4332
  24   1.0000      -2.513963       -68.4084
  25   1.0000      -2.512637       -68.3723
  26   1.0000      -2.511579       -68.3436
  27   1.0000      -2.510754       -68.3211
  28   1.0000      -2.509856       -68.2967
  29   1.0000      -2.509341       -68.2826
  30   1.0000      -2.507981       -68.2456
  31   1.0000      -2.507848       -68.2420
  32   1.0000      -2.507356       -68.2286
  33   1.0000      -2.507196       -68.2243
  34   1.0000      -2.506341       -68.2010
  35   1.0000      -2.506089       -68.1941
  36   1.0000      -2.505941       -68.1901
  37   1.0000      -2.505855       -68.1878
  38   1.0000      -2.505249       -68.1713
  39   1.0000      -2.504686       -68.1560
  40   1.0000      -2.504249       -68.1441
  41   1.0000      -2.504105       -68.1402
  42   1.0000      -2.502957       -68.1089
  43   1.0000      -2.501918       -68.0807
  44   1.0000      -2.501744       -68.0759
  45   1.0000      -2.500575       -68.0441
  46   1.0000      -2.080577       -56.6154
  47   1.0000      -2.079960       -56.5986
  48   1.0000      -2.078578       -56.5610
  49   1.0000      -0.483106       -13.1460
  50   1.0000      -0.474954       -12.9242
  51   1.0000      -0.463184       -12.6039
  52   1.0000      -0.460205       -12.5228
  53   1.0000      -0.458768       -12.4837
  54   1.0000      -0.454088       -12.3564
  55   1.0000      -0.451573       -12.2879
  56   1.0000      -0.448798       -12.2124
  57   1.0000      -0.444603       -12.0983
  58   1.0000      -0.440607       -11.9895
  59   1.0000      -0.433331       -11.7915
  60   1.0000      -0.426010       -11.5923
  61   1.0000      -0.424254       -11.5445
  62   1.0000      -0.421438       -11.4679
  63   1.0000      -0.420655       -11.4466
  64   1.0000      -0.414240       -11.2720
  65   1.0000      -0.413204       -11.2439
  66   1.0000      -0.411293       -11.1918
  67   1.0000      -0.409937       -11.1550
  68   1.0000      -0.406545       -11.0626
  69   1.0000      -0.405874       -11.0444
  70   1.0000      -0.398912       -10.8549
  71   1.0000      -0.396405       -10.7867
  72   1.0000      -0.390826       -10.6349
  73   1.0000      -0.390066       -10.6142
  74   1.0000      -0.385087       -10.4788
  75   1.0000      -0.384761       -10.4699
  76   1.0000      -0.382160       -10.3991
  77   1.0000      -0.377158       -10.2630
  78   1.0000      -0.377094       -10.2612
  79   1.0000      -0.374611       -10.1937
  80   1.0000      -0.372927       -10.1479
  81   1.0000      -0.372544       -10.1374
  82   1.0000      -0.371029       -10.0962
  83   1.0000      -0.368272       -10.0212
  84   1.0000      -0.367822       -10.0090
  85   1.0000      -0.366470        -9.9722
  86   1.0000      -0.361721        -9.8429
  87   1.0000      -0.360875        -9.8199
  88   1.0000      -0.359582        -9.7847
  89   1.0000      -0.359090        -9.7713
  90   1.0000      -0.354331        -9.6418
  91   1.0000      -0.352576        -9.5941
  92   1.0000      -0.349233        -9.5031
  93   1.0000      -0.346221        -9.4211
  94   1.0000      -0.343361        -9.3433
  95   1.0000      -0.342499        -9.3199
  96   1.0000      -0.342053        -9.3077
  97   1.0000      -0.339444        -9.2368
  98   1.0000      -0.332129        -9.0377
  99   1.0000      -0.323026        -8.7900
 100   1.0000      -0.314585        -8.5603
 101   1.0000      -0.300682        -8.1820
 102   1.0000      -0.289472        -7.8769
 103   1.0000      -0.239186        -6.5086
 104   1.0000      -0.232016        -6.3135
 105   1.0000      -0.168377        -4.5818
 106   0.0000      -0.084744        -2.3060
 107   0.0000      -0.075178        -2.0457
 108   0.0000      -0.070525        -1.9191
 109   0.0000      -0.050164        -1.3650
 110   0.0000      -0.024382        -0.6635

MULLIKEN ATOMIC CHARGES AND SPIN POPULATIONS
--------------------------------------------
   0 Au:    0.193771   -0.241884
   1 Au:    0.229606   -0.287277
   2 Au:   -0.054292   -0.270536
   3 Au:   -0.177638   -0.263101
   4 Au:    0.193920   -0.239900
   5 Au:    0.313768    0.020547
   6 Au:   -0.520689   -0.023461
   7 Au:    0.233001   -0.286924
   8 Au:   -0.061224   -0.277300
   9 Au:    0.254889    0.061814
  10 Mn:   -0.605111    4.808022
Sum of atomic charges         :   -0.0000000

LOEWDIN ATOMIC CHARGES AND SPIN POPULATIONS
-------------------------------------------
   0 Au:    0.047405   -0.221359
   1 Au:    0.024983   -0.213332
   2 Au:   -0.043794   -0.255069
   3 Au:   -0.122933   -0.187713
   4 Au:    0.047467   -0.220766
   5 Au:    0.092144   -0.042224
   6 Au:   -0.190464   -0.030862
   7 Au:    0.026811   -0.213031
   8 Au:   -0.044809   -0.259878
   9 Au:    0.157788    0.037362
  10 Mn:    0.005402    4.606872

  Mayer bond orders larger than 0.100000
B(  0-Au,  4-Au) :   0.2711 B(  0-Au,  8-Au) :   0.2803 B(  0-Au, 10-Mn) :   0.5295
B(  1-Au,  2-Au) :   0.3924 B(  1-Au,  3-Au) :   0.2332 B(  1-Au,  5-Au) :   0.2309
B(  1-Au,  6-Au) :   0.2381 B(  2-Au,  3-Au) :   0.2057 B(  2-Au,  4-Au) :   0.2818
B(  2-Au, 10-Mn) :   0.4118 B(  3-Au,  6-Au) :   0.1472 B(  3-Au,  7-Au) :   0.2330
B(  3-Au,  8-Au) :   0.2047 B(  3-Au, 10-Mn) :   0.4647 B(  4-Au, 10-Mn) :   0.5285
B(  5-Au,  6-Au) :   0.5630 B(  5-Au,  7-Au) :   0.2302 B(  6-Au,  7-Au) :   0.2374
B(  6-Au,  9-Au) :   0.6851 B(  6-Au, 10-Mn) :   0.3972 B(  7-Au,  8-Au) :   0.3908
B(  8-Au, 10-Mn) :   0.4107 B(  9-Au, 10-Mn) :   0.5401

MP2 TOTAL ENERGY:    -2506.634129589 Eh
FINAL SINGLE POINT ENERGY     -2506.634129588719

DIPOLE MOMENT
-------------
                                X             Y             Z
Electronic contribution:     15.44857     -11.33548      49.52250
Nuclear contribution   :    -15.66029      11.61773     -49.76503
                        -----------------------------------------
Total Dipole Moment    :     -0.21173       0.28225      -0.24253
                        -----------------------------------------
Magnitude (a.u.)       :      0.42815
Magnitude (Debye)      :      1.08828

Rotational constants in cm-1:     0.002164     0.001374     0.001214
Rotational constants in MHz :    64.887865    41.181398    36.380479

                             ****ORCA TERMINATED NORMALLY****
TOTAL RUN TIME: 0 days 0 hours 20 minutes 5 seconds 496 msec
