                         Program Version 5.0.3 -  RELEASE  -
|  1> !PBE def2-TZVP VERYSLOWCONV
|  2> !KDIIS
|  3>
|  4> %scf
|  5>   AutoTRAHIter 200
|  6>   maxiter 400
|  7> end
|  8>
|  9>
| 10> %pal nprocs 6 end
| 11>
| 12> *xyzfile 0 6 pbe.xyz
| 13>
| 14> $new_job
| 15>
| 16> !PBE def2-TZVP VERYSLOWCONV
| 17> !KDIIS
| 18>
| 19> %scf
| 20>   AutoTRAHIter 200
| 21>   maxiter 400
| 22> end
| 23>
| 24>
| 25> %pal nprocs 6 end
| 26>
| 27> *xyzfile 0 4 pbe.xyz
| 28>
| 29>
| 30>
| 31>
| 32>
| 33>                          ****END OF INPUT****
 Total Charge           Charge          ....    0
 Multiplicity           Mult            ....    6
 Number of Electrons    NEL             ....  215
FINAL SINGLE POINT ENERGY     -2509.032202607939

CARTESIAN COORDINATES (ANGSTROEM)
---------------------------------
  Au     4.631770    4.526717    5.322018
  Au     8.223586    6.943650    9.914931
  Au     8.235161    6.364060    7.250870
  Au     6.777008    4.817157    9.029599
  Au     7.040797    5.975578    4.884306
  Au     6.346717    6.428192   11.921172
  Au     5.366406    7.386793    9.615230
  Au     4.540159    4.767281   10.576802
  Au     4.335894    4.074910    7.946813
  Au     4.310789    8.548416    7.538066
  Mn     5.548439    6.304048    7.025938

 Multiplicity           Mult            ....    4
 Number of Electrons    NEL             ....  215
 Basis Dimension        Dim             ....  445

ORBITAL ENERGIES
----------------
                 SPIN UP ORBITALS
  NO   OCC          E(Eh)            E(eV)
   0   1.0000    -234.193268     -6372.7228
   1   1.0000     -26.888145      -731.6636
   2   1.0000     -23.039119      -626.9263
   3   1.0000     -23.036626      -626.8585
   4   1.0000     -23.034566      -626.8024
   5   1.0000      -4.030304      -109.6702
   6   1.0000      -4.029580      -109.6504
   7   1.0000      -4.021265      -109.4242
   8   1.0000      -4.021116      -109.4201
   9   1.0000      -4.018347      -109.3448
  10   1.0000      -4.017590      -109.3242
  11   1.0000      -4.017493      -109.3216
  12   1.0000      -4.017217      -109.3140
  13   1.0000      -4.017213      -109.3139
  14   1.0000      -4.015833      -109.2764
  15   1.0000      -3.096760       -84.2671
  16   1.0000      -2.251408       -61.2639
  17   1.0000      -2.245759       -61.1102
  18   1.0000      -2.242869       -61.0316
  19   1.0000      -2.241119       -60.9839
  20   1.0000      -2.239832       -60.9489
  21   1.0000      -2.239654       -60.9441
  22   1.0000      -2.238605       -60.9155
  23   1.0000      -2.238320       -60.9078
  24   1.0000      -2.237935       -60.8973
  25   1.0000      -2.235961       -60.8436
  26   1.0000      -2.235411       -60.8286
  27   1.0000      -2.235252       -60.8243
  28   1.0000      -2.234732       -60.8102
  29   1.0000      -2.233332       -60.7721
  30   1.0000      -2.232828       -60.7583
  31   1.0000      -2.232099       -60.7385
  32   1.0000      -2.231596       -60.7248
  33   1.0000      -2.231411       -60.7198
  34   1.0000      -2.230937       -60.7069
  35   1.0000      -2.230812       -60.7035
  36   1.0000      -2.229773       -60.6752
  37   1.0000      -2.228659       -60.6449
  38   1.0000      -2.227768       -60.6207
  39   1.0000      -2.227613       -60.6164
  40   1.0000      -2.226661       -60.5905
  41   1.0000      -2.226620       -60.5894
  42   1.0000      -2.224753       -60.5386
  43   1.0000      -2.224264       -60.5253
  44   1.0000      -2.223683       -60.5095
  45   1.0000      -2.223441       -60.5029
  46   1.0000      -2.004710       -54.5509
  47   1.0000      -1.999175       -54.4003
  48   1.0000      -1.994344       -54.2689
  49   1.0000      -0.407228       -11.0812
  50   1.0000      -0.381148       -10.3716
  51   1.0000      -0.370217       -10.0741
  52   1.0000      -0.366188        -9.9645
  53   1.0000      -0.357175        -9.7192
  54   1.0000      -0.353293        -9.6136
  55   1.0000      -0.352965        -9.6047
  56   1.0000      -0.349115        -9.4999
  57   1.0000      -0.341161        -9.2835
  58   1.0000      -0.340587        -9.2679
  59   1.0000      -0.337432        -9.1820
  60   1.0000      -0.331491        -9.0203
  61   1.0000      -0.330299        -8.9879
  62   1.0000      -0.323142        -8.7932
  63   1.0000      -0.318055        -8.6547
  64   1.0000      -0.317774        -8.6471
  65   1.0000      -0.314316        -8.5530
  66   1.0000      -0.311293        -8.4707
  67   1.0000      -0.306980        -8.3533
  68   1.0000      -0.305875        -8.3233
  69   1.0000      -0.304192        -8.2775
  70   1.0000      -0.302137        -8.2216
  71   1.0000      -0.300302        -8.1716
  72   1.0000      -0.299845        -8.1592
  73   1.0000      -0.290905        -7.9159
  74   1.0000      -0.290435        -7.9031
  75   1.0000      -0.289387        -7.8746
  76   1.0000      -0.287210        -7.8154
  77   1.0000      -0.280866        -7.6428
  78   1.0000      -0.280214        -7.6250
  79   1.0000      -0.277452        -7.5499
  80   1.0000      -0.276579        -7.5261
  81   1.0000      -0.274813        -7.4780
  82   1.0000      -0.273546        -7.4436
  83   1.0000      -0.269265        -7.3271
  84   1.0000      -0.269115        -7.3230
  85   1.0000      -0.268083        -7.2949
  86   1.0000      -0.264510        -7.1977
  87   1.0000      -0.263448        -7.1688
  88   1.0000      -0.263353        -7.1662
  89   1.0000      -0.261509        -7.1160
  90   1.0000      -0.261415        -7.1135
  91   1.0000      -0.259453        -7.0601
  92   1.0000      -0.257439        -7.0053
  93   1.0000      -0.254050        -6.9131
  94   1.0000      -0.253836        -6.9072
  95   1.0000      -0.253659        -6.9024
  96   1.0000      -0.251604        -6.8465
  97   1.0000      -0.247254        -6.7281
  98   1.0000      -0.247075        -6.7233
  99   1.0000      -0.245047        -6.6681
 100   1.0000      -0.241317        -6.5666
 101   1.0000      -0.239657        -6.5214
 102   1.0000      -0.236750        -6.4423
 103   1.0000      -0.233952        -6.3662
 104   1.0000      -0.232341        -6.3223
 105   1.0000      -0.230731        -6.2785
 106   1.0000      -0.227551        -6.1920
 107   1.0000      -0.225203        -6.1281
 108   1.0000      -0.207766        -5.6536
 109   0.0000      -0.191777        -5.2185
 110   0.0000      -0.146068        -3.9747
 111   0.0000      -0.140948        -3.8354
 112   0.0000      -0.128202        -3.4885
 113   0.0000      -0.124583        -3.3901

                 SPIN DOWN ORBITALS
  NO   OCC          E(Eh)            E(eV)
   0   1.0000    -234.192533     -6372.7028
   1   1.0000     -26.823370      -729.9010
   2   1.0000     -22.989328      -625.5714
   3   1.0000     -22.986727      -625.5006
   4   1.0000     -22.986652      -625.4986
   5   1.0000      -4.031468      -109.7018
   6   1.0000      -4.030002      -109.6619
   7   1.0000      -4.020864      -109.4133
   8   1.0000      -4.020737      -109.4098
   9   1.0000      -4.018176      -109.3401
  10   1.0000      -4.018173      -109.3400
  11   1.0000      -4.017254      -109.3150
  12   1.0000      -4.017149      -109.3122
  13   1.0000      -4.016631      -109.2981
  14   1.0000      -4.016229      -109.2872
  15   1.0000      -2.937352       -79.9294
  16   1.0000      -2.250823       -61.2480
  17   1.0000      -2.248685       -61.1898
  18   1.0000      -2.244439       -61.0743
  19   1.0000      -2.240898       -60.9779
  20   1.0000      -2.239494       -60.9397
  21   1.0000      -2.239186       -60.9314
  22   1.0000      -2.239097       -60.9289
  23   1.0000      -2.238749       -60.9195
  24   1.0000      -2.235694       -60.8363
  25   1.0000      -2.235375       -60.8276
  26   1.0000      -2.235066       -60.8192
  27   1.0000      -2.234570       -60.8057
  28   1.0000      -2.233922       -60.7881
  29   1.0000      -2.233806       -60.7850
  30   1.0000      -2.233350       -60.7726
  31   1.0000      -2.232826       -60.7583
  32   1.0000      -2.232671       -60.7541
  33   1.0000      -2.231782       -60.7299
  34   1.0000      -2.231140       -60.7124
  35   1.0000      -2.229913       -60.6790
  36   1.0000      -2.229668       -60.6723
  37   1.0000      -2.229279       -60.6618
  38   1.0000      -2.227805       -60.6217
  39   1.0000      -2.227693       -60.6186
  40   1.0000      -2.227260       -60.6068
  41   1.0000      -2.227229       -60.6060
  42   1.0000      -2.224248       -60.5249
  43   1.0000      -2.224170       -60.5228
  44   1.0000      -2.223808       -60.5129
  45   1.0000      -2.222247       -60.4704
  46   1.0000      -1.845406       -50.2160
  47   1.0000      -1.842827       -50.1459
  48   1.0000      -1.840412       -50.0801
  49   1.0000      -0.406441       -11.0598
  50   1.0000      -0.381286       -10.3753
  51   1.0000      -0.367010        -9.9868
  52   1.0000      -0.363804        -9.8996
  53   1.0000      -0.355367        -9.6700
  54   1.0000      -0.351465        -9.5638
  55   1.0000      -0.350897        -9.5484
  56   1.0000      -0.350469        -9.5368
  57   1.0000      -0.342148        -9.3103
  58   1.0000      -0.339596        -9.2409
  59   1.0000      -0.332246        -9.0409
  60   1.0000      -0.326685        -8.8895
  61   1.0000      -0.325277        -8.8512
  62   1.0000      -0.318146        -8.6572
  63   1.0000      -0.317599        -8.6423
  64   1.0000      -0.316745        -8.6191
  65   1.0000      -0.312492        -8.5033
  66   1.0000      -0.308232        -8.3874
  67   1.0000      -0.308195        -8.3864
  68   1.0000      -0.302464        -8.2305
  69   1.0000      -0.301848        -8.2137
  70   1.0000      -0.299067        -8.1380
  71   1.0000      -0.292610        -7.9623
  72   1.0000      -0.291657        -7.9364
  73   1.0000      -0.291623        -7.9355
  74   1.0000      -0.287808        -7.8316
  75   1.0000      -0.286067        -7.7843
  76   1.0000      -0.281621        -7.6633
  77   1.0000      -0.279236        -7.5984
  78   1.0000      -0.278604        -7.5812
  79   1.0000      -0.277247        -7.5443
  80   1.0000      -0.276853        -7.5335
  81   1.0000      -0.274650        -7.4736
  82   1.0000      -0.274519        -7.4700
  83   1.0000      -0.270118        -7.3503
  84   1.0000      -0.269920        -7.3449
  85   1.0000      -0.268937        -7.3181
  86   1.0000      -0.265953        -7.2369
  87   1.0000      -0.264377        -7.1941
  88   1.0000      -0.263289        -7.1644
  89   1.0000      -0.261981        -7.1289
  90   1.0000      -0.259463        -7.0603
  91   1.0000      -0.258923        -7.0456
  92   1.0000      -0.255524        -6.9531
  93   1.0000      -0.254617        -6.9285
  94   1.0000      -0.252660        -6.8752
  95   1.0000      -0.252182        -6.8622
  96   1.0000      -0.251069        -6.8319
  97   1.0000      -0.248669        -6.7666
  98   1.0000      -0.247818        -6.7435
  99   1.0000      -0.246370        -6.7041
 100   1.0000      -0.238879        -6.5002
 101   1.0000      -0.236389        -6.4325
 102   1.0000      -0.230456        -6.2710
 103   1.0000      -0.212977        -5.7954
 104   1.0000      -0.206375        -5.6158
 105   1.0000      -0.159814        -4.3488
 106   0.0000      -0.153667        -4.1815
 107   0.0000      -0.140748        -3.8299
 108   0.0000      -0.138108        -3.7581
 109   0.0000      -0.128230        -3.4893
 110   0.0000      -0.122691        -3.3386

MULLIKEN ATOMIC CHARGES AND SPIN POPULATIONS
--------------------------------------------
   0 Au:    0.223260   -0.163672
   1 Au:    0.204538   -0.198022
   2 Au:    0.019992   -0.135922
   3 Au:   -0.111582   -0.267175
   4 Au:    0.225527   -0.163039
   5 Au:    0.325602    0.013104
   6 Au:   -0.473692   -0.045604
   7 Au:    0.207413   -0.199276
   8 Au:    0.015629   -0.140895
   9 Au:    0.260194    0.095771
  10 Mn:   -0.896882    4.204728
Sum of atomic charges         :    0.0000000

LOEWDIN ATOMIC CHARGES AND SPIN POPULATIONS
-------------------------------------------
   0 Au:    0.069264   -0.150763
   1 Au:    0.031479   -0.162549
   2 Au:    0.013779   -0.148313
   3 Au:   -0.073484   -0.180088
   4 Au:    0.069457   -0.150787
   5 Au:    0.068131   -0.029120
   6 Au:   -0.151785   -0.015858
   7 Au:    0.032546   -0.163212
   8 Au:    0.013226   -0.152034
   9 Au:    0.165169    0.069919
  10 Mn:   -0.237781    4.082806

  Mayer bond orders larger than 0.100000
B(  0-Au,  4-Au) :   0.2818 B(  0-Au,  8-Au) :   0.3165 B(  0-Au, 10-Mn) :   0.5885
B(  1-Au,  2-Au) :   0.3974 B(  1-Au,  3-Au) :   0.3076 B(  1-Au,  5-Au) :   0.2843
B(  1-Au,  6-Au) :   0.2734 B(  2-Au,  3-Au) :   0.2334 B(  2-Au,  4-Au) :   0.3179
B(  2-Au, 10-Mn) :   0.5410 B(  3-Au,  6-Au) :   0.1650 B(  3-Au,  7-Au) :   0.3078
B(  3-Au,  8-Au) :   0.2338 B(  3-Au, 10-Mn) :   0.5644 B(  4-Au, 10-Mn) :   0.5854
B(  5-Au,  6-Au) :   0.5409 B(  5-Au,  7-Au) :   0.2832 B(  6-Au,  7-Au) :   0.2721
B(  6-Au,  9-Au) :   0.6882 B(  6-Au, 10-Mn) :   0.4480 B(  7-Au,  8-Au) :   0.3959
B(  8-Au, 10-Mn) :   0.5403 B(  9-Au, 10-Mn) :   0.6078

FINAL SINGLE POINT ENERGY     -2508.998718726535

DIPOLE MOMENT
-------------
                                X             Y             Z
Electronic contribution:     15.53362     -11.45387      49.60010
Nuclear contribution   :    -15.66029      11.61773     -49.76503
                        -----------------------------------------
Total Dipole Moment    :     -0.12667       0.16386      -0.16493
                        -----------------------------------------
Magnitude (a.u.)       :      0.26476
Magnitude (Debye)      :      0.67297

Rotational constants in cm-1:     0.002164     0.001374     0.001214
Rotational constants in MHz :    64.887865    41.181398    36.380479

                             ****ORCA TERMINATED NORMALLY****
TOTAL RUN TIME: 0 days 0 hours 4 minutes 6 seconds 502 msec
