                         Program Version 5.0.3 -  RELEASE  -
|  1> !R2SCAN def2-TZVP VERYSLOWCONV
|  2> !KDIIS
|  3> %scf
|  4>   AutoTRAHIter 200
|  5>   maxiter 400
|  6> end
|  7>
|  8> %pal nprocs 6 end
|  9>
| 10> *xyzfile 0 6 pbe.xyz
| 11>
| 12> $new_job
| 13>
| 14> !R2SCAN def2-TZVP VERYSLOWCONV
| 15> !KDIIS
| 16> %scf
| 17>   AutoTRAHIter 200
| 18>   maxiter 400
| 19> end
| 20>
| 21>
| 22> %pal nprocs 6 end
| 23>
| 24> *xyzfile 0 4 pbe.xyz
| 25>
| 26>
| 27>
| 28>
| 29>
| 30>                          ****END OF INPUT****
 Total Charge           Charge          ....    0
 Multiplicity           Mult            ....    6
 Number of Electrons    NEL             ....  215
FINAL SINGLE POINT ENERGY     -2509.440995913374

CARTESIAN COORDINATES (ANGSTROEM)
---------------------------------
  Au     4.631770    4.526717    5.322018
  Au     8.223586    6.943650    9.914931
  Au     8.235161    6.364060    7.250870
  Au     6.777008    4.817157    9.029599
  Au     7.040797    5.975578    4.884306
  Au     6.346717    6.428192   11.921172
  Au     5.366406    7.386793    9.615230
  Au     4.540159    4.767281   10.576802
  Au     4.335894    4.074910    7.946813
  Au     4.310789    8.548416    7.538066
  Mn     5.548439    6.304048    7.025938

 Multiplicity           Mult            ....    4
 Number of Electrons    NEL             ....  215
 Basis Dimension        Dim             ....  445

ORBITAL ENERGIES
----------------
                 SPIN UP ORBITALS
  NO   OCC          E(Eh)            E(eV)
   0   1.0000    -235.037756     -6395.7025
   1   1.0000     -27.217687      -740.6309
   2   1.0000     -23.265369      -633.0829
   3   1.0000     -23.264748      -633.0660
   4   1.0000     -23.263089      -633.0208
   5   1.0000      -4.121429      -112.1498
   6   1.0000      -4.119192      -112.0889
   7   1.0000      -4.112062      -111.8949
   8   1.0000      -4.111894      -111.8903
   9   1.0000      -4.111570      -111.8815
  10   1.0000      -4.110023      -111.8394
  11   1.0000      -4.109912      -111.8364
  12   1.0000      -4.107130      -111.7607
  13   1.0000      -4.107102      -111.7599
  14   1.0000      -4.106666      -111.7481
  15   1.0000      -3.239738       -88.1577
  16   1.0000      -2.315431       -63.0061
  17   1.0000      -2.307579       -62.7924
  18   1.0000      -2.305534       -62.7368
  19   1.0000      -2.305086       -62.7246
  20   1.0000      -2.303784       -62.6892
  21   1.0000      -2.303652       -62.6856
  22   1.0000      -2.303570       -62.6833
  23   1.0000      -2.302268       -62.6479
  24   1.0000      -2.301226       -62.6196
  25   1.0000      -2.300749       -62.6066
  26   1.0000      -2.299641       -62.5764
  27   1.0000      -2.298846       -62.5548
  28   1.0000      -2.298567       -62.5472
  29   1.0000      -2.297531       -62.5190
  30   1.0000      -2.296771       -62.4983
  31   1.0000      -2.296187       -62.4824
  32   1.0000      -2.295957       -62.4762
  33   1.0000      -2.294675       -62.4413
  34   1.0000      -2.294409       -62.4340
  35   1.0000      -2.293974       -62.4222
  36   1.0000      -2.293502       -62.4094
  37   1.0000      -2.291743       -62.3615
  38   1.0000      -2.291406       -62.3523
  39   1.0000      -2.291214       -62.3471
  40   1.0000      -2.290327       -62.3230
  41   1.0000      -2.289821       -62.3092
  42   1.0000      -2.289673       -62.3052
  43   1.0000      -2.289607       -62.3034
  44   1.0000      -2.289523       -62.3011
  45   1.0000      -2.287309       -62.2409
  46   1.0000      -2.098807       -57.1114
  47   1.0000      -2.096842       -57.0580
  48   1.0000      -2.093031       -56.9543
  49   1.0000      -0.412063       -11.2128
  50   1.0000      -0.388960       -10.5841
  51   1.0000      -0.379588       -10.3291
  52   1.0000      -0.373701       -10.1689
  53   1.0000      -0.367023        -9.9872
  54   1.0000      -0.365090        -9.9346
  55   1.0000      -0.363923        -9.9028
  56   1.0000      -0.357479        -9.7275
  57   1.0000      -0.351740        -9.5713
  58   1.0000      -0.351581        -9.5670
  59   1.0000      -0.348353        -9.4792
  60   1.0000      -0.343320        -9.3422
  61   1.0000      -0.341300        -9.2872
  62   1.0000      -0.334778        -9.1098
  63   1.0000      -0.328322        -8.9341
  64   1.0000      -0.327018        -8.8986
  65   1.0000      -0.324430        -8.8282
  66   1.0000      -0.321425        -8.7464
  67   1.0000      -0.317447        -8.6382
  68   1.0000      -0.316117        -8.6020
  69   1.0000      -0.314609        -8.5610
  70   1.0000      -0.314483        -8.5575
  71   1.0000      -0.312759        -8.5106
  72   1.0000      -0.309982        -8.4350
  73   1.0000      -0.301844        -8.2136
  74   1.0000      -0.300259        -8.1705
  75   1.0000      -0.299123        -8.1396
  76   1.0000      -0.296725        -8.0743
  77   1.0000      -0.291287        -7.9263
  78   1.0000      -0.290698        -7.9103
  79   1.0000      -0.285503        -7.7689
  80   1.0000      -0.284543        -7.7428
  81   1.0000      -0.283986        -7.7276
  82   1.0000      -0.281368        -7.6564
  83   1.0000      -0.278116        -7.5679
  84   1.0000      -0.277900        -7.5620
  85   1.0000      -0.277722        -7.5572
  86   1.0000      -0.274237        -7.4624
  87   1.0000      -0.272158        -7.4058
  88   1.0000      -0.272046        -7.4027
  89   1.0000      -0.271131        -7.3778
  90   1.0000      -0.270430        -7.3588
  91   1.0000      -0.269518        -7.3339
  92   1.0000      -0.268135        -7.2963
  93   1.0000      -0.264988        -7.2107
  94   1.0000      -0.262708        -7.1486
  95   1.0000      -0.262183        -7.1344
  96   1.0000      -0.260729        -7.0948
  97   1.0000      -0.255923        -6.9640
  98   1.0000      -0.255122        -6.9422
  99   1.0000      -0.254040        -6.9128
 100   1.0000      -0.253221        -6.8905
 101   1.0000      -0.252030        -6.8581
 102   1.0000      -0.248365        -6.7584
 103   1.0000      -0.247233        -6.7276
 104   1.0000      -0.244491        -6.6530
 105   1.0000      -0.238877        -6.5002
 106   1.0000      -0.236203        -6.4274
 107   1.0000      -0.230374        -6.2688
 108   1.0000      -0.210025        -5.7151
 109   0.0000      -0.189870        -5.1666
 110   0.0000      -0.141970        -3.8632
 111   0.0000      -0.133634        -3.6364
 112   0.0000      -0.124040        -3.3753
 113   0.0000      -0.118436        -3.2228

                 SPIN DOWN ORBITALS
  NO   OCC          E(Eh)            E(eV)
   0   1.0000    -235.036711     -6395.6741
   1   1.0000     -27.129840      -738.2405
   2   1.0000     -23.197792      -631.2440
   3   1.0000     -23.196629      -631.2124
   4   1.0000     -23.196604      -631.2117
   5   1.0000      -4.122185      -112.1704
   6   1.0000      -4.121158      -112.1424
   7   1.0000      -4.111752      -111.8864
   8   1.0000      -4.111608      -111.8825
   9   1.0000      -4.109916      -111.8365
  10   1.0000      -4.109794      -111.8332
  11   1.0000      -4.109723      -111.8313
  12   1.0000      -4.108457      -111.7968
  13   1.0000      -4.108433      -111.7962
  14   1.0000      -4.107013      -111.7575
  15   1.0000      -3.029452       -82.4356
  16   1.0000      -2.314653       -62.9849
  17   1.0000      -2.312041       -62.9138
  18   1.0000      -2.307628       -62.7937
  19   1.0000      -2.304772       -62.7160
  20   1.0000      -2.303185       -62.6728
  21   1.0000      -2.302787       -62.6620
  22   1.0000      -2.302707       -62.6598
  23   1.0000      -2.302672       -62.6589
  24   1.0000      -2.300956       -62.6122
  25   1.0000      -2.300197       -62.5915
  26   1.0000      -2.298996       -62.5589
  27   1.0000      -2.298303       -62.5400
  28   1.0000      -2.297931       -62.5299
  29   1.0000      -2.297196       -62.5099
  30   1.0000      -2.296645       -62.4949
  31   1.0000      -2.296469       -62.4901
  32   1.0000      -2.295960       -62.4763
  33   1.0000      -2.295306       -62.4584
  34   1.0000      -2.295183       -62.4551
  35   1.0000      -2.294764       -62.4437
  36   1.0000      -2.294549       -62.4379
  37   1.0000      -2.292435       -62.3803
  38   1.0000      -2.291368       -62.3513
  39   1.0000      -2.291220       -62.3473
  40   1.0000      -2.290532       -62.3286
  41   1.0000      -2.290491       -62.3274
  42   1.0000      -2.289809       -62.3089
  43   1.0000      -2.289393       -62.2975
  44   1.0000      -2.288111       -62.2627
  45   1.0000      -2.287850       -62.2556
  46   1.0000      -1.888236       -51.3815
  47   1.0000      -1.887610       -51.3645
  48   1.0000      -1.885558       -51.3086
  49   1.0000      -0.411895       -11.2082
  50   1.0000      -0.389529       -10.5996
  51   1.0000      -0.374350       -10.1866
  52   1.0000      -0.373311       -10.1583
  53   1.0000      -0.364904        -9.9296
  54   1.0000      -0.360702        -9.8152
  55   1.0000      -0.359886        -9.7930
  56   1.0000      -0.359718        -9.7884
  57   1.0000      -0.351664        -9.5693
  58   1.0000      -0.348667        -9.4877
  59   1.0000      -0.343179        -9.3384
  60   1.0000      -0.335353        -9.1254
  61   1.0000      -0.335020        -9.1164
  62   1.0000      -0.328234        -8.9317
  63   1.0000      -0.326877        -8.8948
  64   1.0000      -0.325704        -8.8629
  65   1.0000      -0.322305        -8.7704
  66   1.0000      -0.317547        -8.6409
  67   1.0000      -0.317354        -8.6357
  68   1.0000      -0.312334        -8.4990
  69   1.0000      -0.311739        -8.4828
  70   1.0000      -0.308804        -8.4030
  71   1.0000      -0.302243        -8.2245
  72   1.0000      -0.301095        -8.1932
  73   1.0000      -0.300714        -8.1828
  74   1.0000      -0.297439        -8.0937
  75   1.0000      -0.294946        -8.0259
  76   1.0000      -0.290858        -7.9146
  77   1.0000      -0.288347        -7.8463
  78   1.0000      -0.287963        -7.8359
  79   1.0000      -0.286036        -7.7834
  80   1.0000      -0.285494        -7.7687
  81   1.0000      -0.284040        -7.7291
  82   1.0000      -0.283389        -7.7114
  83   1.0000      -0.279872        -7.6157
  84   1.0000      -0.278948        -7.5906
  85   1.0000      -0.278632        -7.5820
  86   1.0000      -0.274386        -7.4664
  87   1.0000      -0.273380        -7.4391
  88   1.0000      -0.271765        -7.3951
  89   1.0000      -0.270765        -7.3679
  90   1.0000      -0.267685        -7.2841
  91   1.0000      -0.267204        -7.2710
  92   1.0000      -0.263794        -7.1782
  93   1.0000      -0.262543        -7.1442
  94   1.0000      -0.260904        -7.0995
  95   1.0000      -0.259979        -7.0744
  96   1.0000      -0.258751        -7.0410
  97   1.0000      -0.256160        -6.9705
  98   1.0000      -0.255875        -6.9627
  99   1.0000      -0.254090        -6.9141
 100   1.0000      -0.245853        -6.6900
 101   1.0000      -0.242136        -6.5889
 102   1.0000      -0.237199        -6.4545
 103   1.0000      -0.215616        -5.8672
 104   1.0000      -0.210062        -5.7161
 105   1.0000      -0.158846        -4.3224
 106   0.0000      -0.148312        -4.0358
 107   0.0000      -0.136695        -3.7197
 108   0.0000      -0.132845        -3.6149
 109   0.0000      -0.114130        -3.1056
 110   0.0000      -0.106316        -2.8930

MULLIKEN ATOMIC CHARGES AND SPIN POPULATIONS
--------------------------------------------
   0 Au:    0.213026   -0.183598
   1 Au:    0.195286   -0.239198
   2 Au:    0.004940   -0.168756
   3 Au:   -0.129280   -0.316914
   4 Au:    0.214730   -0.182694
   5 Au:    0.281501    0.024854
   6 Au:   -0.442636   -0.038109
   7 Au:    0.198333   -0.240056
   8 Au:   -0.000098   -0.174756
   9 Au:    0.267564    0.095528
  10 Mn:   -0.803365    4.423699
Sum of atomic charges         :   -0.0000000

LOEWDIN ATOMIC CHARGES AND SPIN POPULATIONS
-------------------------------------------
   0 Au:    0.064312   -0.168378
   1 Au:    0.026148   -0.191174
   2 Au:   -0.001900   -0.181299
   3 Au:   -0.085022   -0.217729
   4 Au:    0.064452   -0.168289
   5 Au:    0.067494   -0.026424
   6 Au:   -0.152973   -0.019261
   7 Au:    0.027465   -0.191595
   8 Au:   -0.002709   -0.185584
   9 Au:    0.160386    0.062421
  10 Mn:   -0.167654    4.287310

  Mayer bond orders larger than 0.100000
B(  0-Au,  4-Au) :   0.2748 B(  0-Au,  8-Au) :   0.2975 B(  0-Au, 10-Mn) :   0.5653
B(  1-Au,  2-Au) :   0.4082 B(  1-Au,  3-Au) :   0.2759 B(  1-Au,  5-Au) :   0.2702
B(  1-Au,  6-Au) :   0.2500 B(  2-Au,  3-Au) :   0.2012 B(  2-Au,  4-Au) :   0.2990
B(  2-Au, 10-Mn) :   0.4956 B(  3-Au,  6-Au) :   0.1194 B(  3-Au,  7-Au) :   0.2762
B(  3-Au,  8-Au) :   0.2008 B(  3-Au, 10-Mn) :   0.5347 B(  4-Au, 10-Mn) :   0.5624
B(  5-Au,  6-Au) :   0.5552 B(  5-Au,  7-Au) :   0.2693 B(  6-Au,  7-Au) :   0.2486
B(  6-Au,  9-Au) :   0.6865 B(  6-Au, 10-Mn) :   0.4338 B(  7-Au,  8-Au) :   0.4063
B(  8-Au, 10-Mn) :   0.4946 B(  9-Au, 10-Mn) :   0.5937

FINAL SINGLE POINT ENERGY     -2509.403918247309

DIPOLE MOMENT
-------------
                                X             Y             Z
Electronic contribution:     15.48574     -11.39559      49.52341
Nuclear contribution   :    -15.66029      11.61773     -49.76503
                        -----------------------------------------
Total Dipole Moment    :     -0.17455       0.22215      -0.24162
                        -----------------------------------------
Magnitude (a.u.)       :      0.37175
Magnitude (Debye)      :      0.94492

Rotational constants in cm-1:     0.002164     0.001374     0.001214
Rotational constants in MHz :    64.887865    41.181398    36.380479

                             ****ORCA TERMINATED NORMALLY****
TOTAL RUN TIME: 0 days 0 hours 5 minutes 25 seconds 731 msec
