                         Program Version 5.0.3 -  RELEASE  -
|  1> !RI-B2PLYP def2-TZVP def2-TZVP/C
|  2> !RIJCOSX VERYSLOWCONV
|  3>
|  4> %scf
|  5>   AutoTRAHIter 200
|  6>   maxiter 400
|  7> end
|  8>
|  9>
| 10> %pal nprocs 6 end
| 11>
| 12> *xyzfile 0 5 pbe.xyz
| 13>
| 14> $new_job
| 15>
| 16> !RI-B2PLYP def2-TZVP def2-TZVP/C
| 17> !RIJCOSX VERYSLOWCONV
| 18>
| 19> %scf
| 20>   AutoTRAHIter 200
| 21>   maxiter 400
| 22> end
| 23>
| 24>
| 25> %pal nprocs 6 end
| 26>
| 27> *xyzfile 0 3 pbe.xyz
| 28>
| 29>
| 30>
| 31>
| 32>
| 33>                          ****END OF INPUT****
 Total Charge           Charge          ....    0
 Multiplicity           Mult            ....    5
 Number of Electrons    NEL             ....  290
MP2 TOTAL ENERGY:    -2942.501964185 Eh
FINAL SINGLE POINT ENERGY     -2942.501964185486

CARTESIAN COORDINATES (ANGSTROEM)
---------------------------------
  Au     7.224144    6.548428    7.981805
  Au     8.870167    4.558443    7.009359
  Au    11.017945    9.287893    8.411283
  Au    10.317770    6.637031    8.010846
  Au     6.410670    9.139128    8.666003
  Au     8.649246   10.897291    8.806437
  Au     8.749586    8.163871    9.799014
  Au    10.955362    8.229995    5.715411
  Au    10.093025   10.929489    6.293701
  Au     8.605046    6.675049    5.293246
  Au     4.778953   10.269205    6.780315
  Au     7.326877   11.076820    6.269857
  Au     6.306002    8.191638    5.795906
  Au     8.574422    9.317317    4.443175
  Cr     8.664938    8.742817    7.121321

 Multiplicity           Mult            ....    3
 Number of Electrons    NEL             ....  290
 Basis Dimension        Dim             ....  605

ORBITAL ENERGIES
----------------
                 SPIN UP ORBITALS
  NO   OCC          E(Eh)            E(eV)
   0   1.0000    -217.717052     -5924.3822
   1   1.0000     -25.399184      -691.1469
   2   1.0000     -21.537868      -586.0752
   3   1.0000     -21.537664      -586.0696
   4   1.0000     -21.535148      -586.0012
   5   1.0000      -4.399638      -119.7202
   6   1.0000      -4.399561      -119.7181
   7   1.0000      -4.395289      -119.6019
   8   1.0000      -4.395279      -119.6016
   9   1.0000      -4.395166      -119.5985
  10   1.0000      -4.395067      -119.5959
  11   1.0000      -4.394619      -119.5837
  12   1.0000      -4.394564      -119.5822
  13   1.0000      -4.394415      -119.5781
  14   1.0000      -4.394257      -119.5738
  15   1.0000      -4.390373      -119.4681
  16   1.0000      -4.390244      -119.4646
  17   1.0000      -4.385164      -119.3264
  18   1.0000      -4.385007      -119.3221
  19   1.0000      -3.193520       -86.9001
  20   1.0000      -2.521150       -68.6040
  21   1.0000      -2.521018       -68.6004
  22   1.0000      -2.517596       -68.5073
  23   1.0000      -2.517456       -68.5035
  24   1.0000      -2.517372       -68.5012
  25   1.0000      -2.517155       -68.4953
  26   1.0000      -2.516693       -68.4827
  27   1.0000      -2.516439       -68.4758
  28   1.0000      -2.515398       -68.4475
  29   1.0000      -2.515311       -68.4451
  30   1.0000      -2.514601       -68.4258
  31   1.0000      -2.514091       -68.4119
  32   1.0000      -2.514039       -68.4105
  33   1.0000      -2.513195       -68.3875
  34   1.0000      -2.513099       -68.3849
  35   1.0000      -2.513002       -68.3822
  36   1.0000      -2.512632       -68.3722
  37   1.0000      -2.512479       -68.3680
  38   1.0000      -2.512467       -68.3677
  39   1.0000      -2.511963       -68.3540
  40   1.0000      -2.511836       -68.3505
  41   1.0000      -2.511434       -68.3396
  42   1.0000      -2.511310       -68.3362
  43   1.0000      -2.510922       -68.3257
  44   1.0000      -2.510420       -68.3120
  45   1.0000      -2.510201       -68.3060
  46   1.0000      -2.509953       -68.2993
  47   1.0000      -2.509353       -68.2830
  48   1.0000      -2.509235       -68.2798
  49   1.0000      -2.509086       -68.2757
  50   1.0000      -2.508768       -68.2670
  51   1.0000      -2.508557       -68.2613
  52   1.0000      -2.506098       -68.1944
  53   1.0000      -2.506018       -68.1922
  54   1.0000      -2.505740       -68.1846
  55   1.0000      -2.505559       -68.1797
  56   1.0000      -2.503228       -68.1163
  57   1.0000      -2.503087       -68.1125
  58   1.0000      -2.500570       -68.0440
  59   1.0000      -2.500417       -68.0398
  60   1.0000      -2.500081       -68.0307
  61   1.0000      -2.499953       -68.0272
  62   1.0000      -2.084567       -56.7240
  63   1.0000      -2.079899       -56.5969
  64   1.0000      -2.079596       -56.5887
  65   1.0000      -0.500679       -13.6242
  66   1.0000      -0.473980       -12.8977
  67   1.0000      -0.470196       -12.7947
  68   1.0000      -0.468472       -12.7478
  69   1.0000      -0.468187       -12.7400
  70   1.0000      -0.465192       -12.6585
  71   1.0000      -0.462015       -12.5721
  72   1.0000      -0.461130       -12.5480
  73   1.0000      -0.457473       -12.4485
  74   1.0000      -0.452690       -12.3183
  75   1.0000      -0.450624       -12.2621
  76   1.0000      -0.450017       -12.2456
  77   1.0000      -0.449717       -12.2374
  78   1.0000      -0.448421       -12.2022
  79   1.0000      -0.446606       -12.1528
  80   1.0000      -0.442764       -12.0482
  81   1.0000      -0.442133       -12.0310
  82   1.0000      -0.440773       -11.9940
  83   1.0000      -0.437750       -11.9118
  84   1.0000      -0.437682       -11.9099
  85   1.0000      -0.436765       -11.8850
  86   1.0000      -0.432900       -11.7798
  87   1.0000      -0.432314       -11.7639
  88   1.0000      -0.429859       -11.6970
  89   1.0000      -0.428843       -11.6694
  90   1.0000      -0.415171       -11.2974
  91   1.0000      -0.413965       -11.2646
  92   1.0000      -0.413433       -11.2501
  93   1.0000      -0.411693       -11.2027
  94   1.0000      -0.407863       -11.0985
  95   1.0000      -0.406309       -11.0562
  96   1.0000      -0.403302       -10.9744
  97   1.0000      -0.398132       -10.8337
  98   1.0000      -0.397824       -10.8253
  99   1.0000      -0.394270       -10.7286
 100   1.0000      -0.392069       -10.6687
 101   1.0000      -0.388742       -10.5782
 102   1.0000      -0.386553       -10.5186
 103   1.0000      -0.386190       -10.5088
 104   1.0000      -0.381650       -10.3852
 105   1.0000      -0.375393       -10.2150
 106   1.0000      -0.375160       -10.2086
 107   1.0000      -0.373224       -10.1559
 108   1.0000      -0.370948       -10.0940
 109   1.0000      -0.367748       -10.0069
 110   1.0000      -0.367501       -10.0002
 111   1.0000      -0.365637        -9.9495
 112   1.0000      -0.365554        -9.9472
 113   1.0000      -0.364398        -9.9158
 114   1.0000      -0.364093        -9.9075
 115   1.0000      -0.361671        -9.8416
 116   1.0000      -0.360071        -9.7980
 117   1.0000      -0.359241        -9.7754
 118   1.0000      -0.357291        -9.7224
 119   1.0000      -0.356784        -9.7086
 120   1.0000      -0.354419        -9.6442
 121   1.0000      -0.354188        -9.6379
 122   1.0000      -0.353988        -9.6325
 123   1.0000      -0.352399        -9.5893
 124   1.0000      -0.349988        -9.5237
 125   1.0000      -0.345963        -9.4141
 126   1.0000      -0.345211        -9.3937
 127   1.0000      -0.344412        -9.3719
 128   1.0000      -0.341845        -9.3021
 129   1.0000      -0.341112        -9.2821
 130   1.0000      -0.339320        -9.2334
 131   1.0000      -0.336637        -9.1604
 132   1.0000      -0.334425        -9.1002
 133   1.0000      -0.324716        -8.8360
 134   1.0000      -0.320188        -8.7128
 135   1.0000      -0.318908        -8.6779
 136   1.0000      -0.316128        -8.6023
 137   1.0000      -0.315119        -8.5748
 138   1.0000      -0.309884        -8.4324
 139   1.0000      -0.302943        -8.2435
 140   1.0000      -0.298893        -8.1333
 141   1.0000      -0.293981        -7.9996
 142   1.0000      -0.290490        -7.9046
 143   1.0000      -0.250713        -6.8223
 144   1.0000      -0.227376        -6.1872
 145   1.0000      -0.226920        -6.1748
 146   0.0000      -0.110277        -3.0008
 147   0.0000      -0.107884        -2.9357
 148   0.0000      -0.093975        -2.5572
 149   0.0000      -0.084131        -2.2893
 150   0.0000      -0.058087        -1.5806

                 SPIN DOWN ORBITALS
  NO   OCC          E(Eh)            E(eV)
   0   1.0000    -217.715806     -5924.3483
   1   1.0000     -25.327774      -689.2038
   2   1.0000     -21.475042      -584.3656
   3   1.0000     -21.473772      -584.3310
   4   1.0000     -21.464193      -584.0704
   5   1.0000      -4.399511      -119.7168
   6   1.0000      -4.399411      -119.7141
   7   1.0000      -4.395270      -119.6014
   8   1.0000      -4.395175      -119.5988
   9   1.0000      -4.395030      -119.5949
  10   1.0000      -4.395022      -119.5946
  11   1.0000      -4.394586      -119.5828
  12   1.0000      -4.394480      -119.5799
  13   1.0000      -4.394395      -119.5776
  14   1.0000      -4.394298      -119.5749
  15   1.0000      -4.390839      -119.4808
  16   1.0000      -4.390723      -119.4776
  17   1.0000      -4.386007      -119.3493
  18   1.0000      -4.385817      -119.3442
  19   1.0000      -2.971243       -80.8516
  20   1.0000      -2.519990       -68.5724
  21   1.0000      -2.519823       -68.5679
  22   1.0000      -2.516975       -68.4904
  23   1.0000      -2.516674       -68.4822
  24   1.0000      -2.516516       -68.4779
  25   1.0000      -2.516295       -68.4719
  26   1.0000      -2.515648       -68.4543
  27   1.0000      -2.515378       -68.4469
  28   1.0000      -2.514173       -68.4141
  29   1.0000      -2.514116       -68.4126
  30   1.0000      -2.513641       -68.3997
  31   1.0000      -2.513411       -68.3934
  32   1.0000      -2.513089       -68.3846
  33   1.0000      -2.512744       -68.3753
  34   1.0000      -2.512691       -68.3738
  35   1.0000      -2.512246       -68.3617
  36   1.0000      -2.512087       -68.3573
  37   1.0000      -2.511899       -68.3522
  38   1.0000      -2.511850       -68.3509
  39   1.0000      -2.511275       -68.3353
  40   1.0000      -2.511188       -68.3329
  41   1.0000      -2.510735       -68.3206
  42   1.0000      -2.510629       -68.3177
  43   1.0000      -2.510213       -68.3064
  44   1.0000      -2.510133       -68.3042
  45   1.0000      -2.509506       -68.2871
  46   1.0000      -2.509472       -68.2862
  47   1.0000      -2.508999       -68.2733
  48   1.0000      -2.508954       -68.2721
  49   1.0000      -2.508728       -68.2659
  50   1.0000      -2.508465       -68.2588
  51   1.0000      -2.508339       -68.2554
  52   1.0000      -2.506448       -68.2039
  53   1.0000      -2.506092       -68.1942
  54   1.0000      -2.505874       -68.1883
  55   1.0000      -2.505769       -68.1854
  56   1.0000      -2.504556       -68.1524
  57   1.0000      -2.504370       -68.1474
  58   1.0000      -2.501813       -68.0778
  59   1.0000      -2.501617       -68.0725
  60   1.0000      -2.501078       -68.0578
  61   1.0000      -2.500934       -68.0539
  62   1.0000      -1.834326       -49.9146
  63   1.0000      -1.831624       -49.8410
  64   1.0000      -1.810498       -49.2661
  65   1.0000      -0.496333       -13.5059
  66   1.0000      -0.466907       -12.7052
  67   1.0000      -0.466566       -12.6959
  68   1.0000      -0.465028       -12.6541
  69   1.0000      -0.463788       -12.6203
  70   1.0000      -0.462280       -12.5793
  71   1.0000      -0.458746       -12.4831
  72   1.0000      -0.456685       -12.4270
  73   1.0000      -0.455311       -12.3897
  74   1.0000      -0.452033       -12.3004
  75   1.0000      -0.451872       -12.2961
  76   1.0000      -0.449510       -12.2318
  77   1.0000      -0.449191       -12.2231
  78   1.0000      -0.448071       -12.1926
  79   1.0000      -0.447999       -12.1907
  80   1.0000      -0.444566       -12.0973
  81   1.0000      -0.441885       -12.0243
  82   1.0000      -0.441322       -12.0090
  83   1.0000      -0.438454       -11.9309
  84   1.0000      -0.438380       -11.9289
  85   1.0000      -0.436358       -11.8739
  86   1.0000      -0.434529       -11.8241
  87   1.0000      -0.432807       -11.7773
  88   1.0000      -0.431405       -11.7391
  89   1.0000      -0.430732       -11.7208
  90   1.0000      -0.416083       -11.3222
  91   1.0000      -0.415430       -11.3044
  92   1.0000      -0.414369       -11.2756
  93   1.0000      -0.413295       -11.2463
  94   1.0000      -0.408898       -11.1267
  95   1.0000      -0.406618       -11.0646
  96   1.0000      -0.402280       -10.9466
  97   1.0000      -0.399968       -10.8837
  98   1.0000      -0.397235       -10.8093
  99   1.0000      -0.388703       -10.5771
 100   1.0000      -0.387247       -10.5375
 101   1.0000      -0.384709       -10.4685
 102   1.0000      -0.384155       -10.4534
 103   1.0000      -0.378255       -10.2928
 104   1.0000      -0.377644       -10.2762
 105   1.0000      -0.374305       -10.1854
 106   1.0000      -0.373353       -10.1595
 107   1.0000      -0.372012       -10.1230
 108   1.0000      -0.370848       -10.0913
 109   1.0000      -0.369407       -10.0521
 110   1.0000      -0.368431       -10.0255
 111   1.0000      -0.366946        -9.9851
 112   1.0000      -0.366775        -9.9805
 113   1.0000      -0.365204        -9.9377
 114   1.0000      -0.365103        -9.9349
 115   1.0000      -0.361433        -9.8351
 116   1.0000      -0.360976        -9.8226
 117   1.0000      -0.360112        -9.7992
 118   1.0000      -0.357295        -9.7225
 119   1.0000      -0.357271        -9.7218
 120   1.0000      -0.356481        -9.7003
 121   1.0000      -0.355336        -9.6692
 122   1.0000      -0.354339        -9.6421
 123   1.0000      -0.354026        -9.6335
 124   1.0000      -0.350602        -9.5404
 125   1.0000      -0.347574        -9.4580
 126   1.0000      -0.346528        -9.4295
 127   1.0000      -0.345950        -9.4138
 128   1.0000      -0.344163        -9.3651
 129   1.0000      -0.342018        -9.3068
 130   1.0000      -0.340149        -9.2559
 131   1.0000      -0.337604        -9.1867
 132   1.0000      -0.334762        -9.1093
 133   1.0000      -0.326427        -8.8825
 134   1.0000      -0.322112        -8.7651
 135   1.0000      -0.319519        -8.6945
 136   1.0000      -0.316794        -8.6204
 137   1.0000      -0.316386        -8.6093
 138   1.0000      -0.311424        -8.4743
 139   1.0000      -0.242959        -6.6113
 140   1.0000      -0.239639        -6.5209
 141   1.0000      -0.213938        -5.8216
 142   1.0000      -0.212471        -5.7816
 143   1.0000      -0.211653        -5.7594
 144   0.0000      -0.091688        -2.4950
 145   0.0000      -0.062833        -1.7098
 146   0.0000      -0.050468        -1.3733
 147   0.0000      -0.048630        -1.3233
 148   0.0000      -0.043042        -1.1712

MULLIKEN ATOMIC CHARGES AND SPIN POPULATIONS
--------------------------------------------
   0 Au:    0.382854   -0.101272
   1 Au:    0.289712    0.082923
   2 Au:    0.577329   -0.092063
   3 Au:    0.322112   -0.051208
   4 Au:    0.367167   -0.114871
   5 Au:    0.584793   -0.114909
   6 Au:    0.626082   -0.060139
   7 Au:    0.584476   -0.117260
   8 Au:    0.578294   -0.091546
   9 Au:    0.365726   -0.113640
  10 Au:    0.289386    0.081635
  11 Au:    0.321259   -0.050806
  12 Au:    0.383298   -0.102380
  13 Au:    0.626571   -0.059795
  14 Cr:   -6.299059    2.905333
Sum of atomic charges         :   -0.0000000

LOEWDIN ATOMIC CHARGES AND SPIN POPULATIONS
-------------------------------------------
   0 Au:    0.062429   -0.127622
   1 Au:    0.165268   -0.013026
   2 Au:    0.122062   -0.155596
   3 Au:    0.038136   -0.082385
   4 Au:    0.049616   -0.131027
   5 Au:    0.140110   -0.157549
   6 Au:    0.146670   -0.150941
   7 Au:    0.140237   -0.158741
   8 Au:    0.121933   -0.154658
   9 Au:    0.049620   -0.130858
  10 Au:    0.165508   -0.014511
  11 Au:    0.037683   -0.081945
  12 Au:    0.062846   -0.128610
  13 Au:    0.146681   -0.150700
  14 Cr:   -1.448798    3.638170

  Mayer bond orders larger than 0.100000
B(  0-Au,  1-Au) :   0.2740 B(  0-Au,  4-Au) :   0.1807 B(  0-Au,  6-Au) :   0.1173
B(  0-Au,  8-Au) :   0.1004 B(  0-Au, 12-Au) :   0.1292 B(  0-Au, 14-Cr) :   0.4869
B(  1-Au,  3-Au) :   0.2752 B(  1-Au,  9-Au) :   0.2632 B(  1-Au, 14-Cr) :   0.4867
B(  2-Au,  3-Au) :   0.2018 B(  2-Au,  5-Au) :   0.1228 B(  2-Au,  6-Au) :   0.1128
B(  2-Au,  7-Au) :   0.1240 B(  2-Au,  8-Au) :   0.1507 B(  2-Au, 12-Au) :   0.1009
B(  2-Au, 14-Cr) :   0.4298 B(  3-Au,  6-Au) :   0.1588 B(  3-Au,  7-Au) :   0.1502
B(  3-Au,  9-Au) :   0.1009 B(  3-Au, 11-Au) :   0.1028 B(  3-Au, 14-Cr) :   0.3740
B(  4-Au,  5-Au) :   0.1460 B(  4-Au,  6-Au) :   0.1647 B(  4-Au,  7-Au) :   0.1043
B(  4-Au, 10-Au) :   0.2626 B(  4-Au, 11-Au) :   0.1004 B(  4-Au, 14-Cr) :   0.4660
B(  5-Au,  6-Au) :   0.1020 B(  5-Au,  8-Au) :   0.1242 B(  5-Au,  9-Au) :   0.1043
B(  5-Au, 11-Au) :   0.1502 B(  5-Au, 14-Cr) :   0.4439 B(  6-Au, 13-Au) :   0.1136
B(  6-Au, 14-Cr) :   0.4118 B(  7-Au,  8-Au) :   0.1223 B(  7-Au,  9-Au) :   0.1458
B(  7-Au, 13-Au) :   0.1017 B(  7-Au, 14-Cr) :   0.4409 B(  8-Au, 11-Au) :   0.2018
B(  8-Au, 13-Au) :   0.1130 B(  8-Au, 14-Cr) :   0.4298 B(  9-Au, 12-Au) :   0.1806
B(  9-Au, 13-Au) :   0.1649 B(  9-Au, 14-Cr) :   0.4712 B( 10-Au, 11-Au) :   0.2768
B( 10-Au, 12-Au) :   0.2736 B( 10-Au, 14-Cr) :   0.4874 B( 11-Au, 13-Au) :   0.1588
B( 11-Au, 14-Cr) :   0.3742 B( 12-Au, 13-Au) :   0.1171 B( 12-Au, 14-Cr) :   0.4860
B( 13-Au, 14-Cr) :   0.4120

MP2 TOTAL ENERGY:    -2942.522554570 Eh
FINAL SINGLE POINT ENERGY     -2942.522554569524

DIPOLE MOMENT
-------------
                                X             Y             Z
Electronic contribution:     -8.73523      -6.31183      -1.07532
Nuclear contribution   :      8.62633       6.23183       1.06167
                        -----------------------------------------
Total Dipole Moment    :     -0.10890      -0.08000      -0.01364
                        -----------------------------------------
Magnitude (a.u.)       :      0.13581
Magnitude (Debye)      :      0.34521

Rotational constants in cm-1:     0.001212     0.000997     0.000910
Rotational constants in MHz :    36.341299    29.879706    27.282705

                             ****ORCA TERMINATED NORMALLY****
TOTAL RUN TIME: 0 days 3 hours 45 minutes 47 seconds 80 msec
