                         Program Version 5.0.3 -  RELEASE  -
|  1> !PBE def2-TZVP VERYSLOWCONV
|  2>
|  3> %scf
|  4>   AutoTRAHIter 200
|  5>   maxiter 400
|  6> end
|  7>
|  8>
|  9> %pal nprocs 6 end
| 10>
| 11> *xyzfile 0 5 pbe.xyz
| 12>
| 13> $new_job
| 14>
| 15> !PBE def2-TZVP VERYSLOWCONV
| 16>
| 17> %scf
| 18>   AutoTRAHIter 200
| 19>   maxiter 400
| 20> end
| 21>
| 22>
| 23> %pal nprocs 6 end
| 24>
| 25> *xyzfile 0 3 pbe.xyz
| 26>
| 27>
| 28>
| 29>
| 30>
| 31>                          ****END OF INPUT****
 Total Charge           Charge          ....    0
 Multiplicity           Mult            ....    5
 Number of Electrons    NEL             ....  290
FINAL SINGLE POINT ENERGY     -2945.818456005248

CARTESIAN COORDINATES (ANGSTROEM)
---------------------------------
  Au     7.224144    6.548428    7.981805
  Au     8.870167    4.558443    7.009359
  Au    11.017945    9.287893    8.411283
  Au    10.317770    6.637031    8.010846
  Au     6.410670    9.139128    8.666003
  Au     8.649246   10.897291    8.806437
  Au     8.749586    8.163871    9.799014
  Au    10.955362    8.229995    5.715411
  Au    10.093025   10.929489    6.293701
  Au     8.605046    6.675049    5.293246
  Au     4.778953   10.269205    6.780315
  Au     7.326877   11.076820    6.269857
  Au     6.306002    8.191638    5.795906
  Au     8.574422    9.317317    4.443175
  Cr     8.664938    8.742817    7.121321

 Multiplicity           Mult            ....    3
 Number of Electrons    NEL             ....  290
 Basis Dimension        Dim             ....  605

ORBITAL ENERGIES
----------------
                 SPIN UP ORBITALS
  NO   OCC          E(Eh)            E(eV)
   0   1.0000    -214.502925     -5836.9213
   1   1.0000     -24.304586      -661.3614
   2   1.0000     -20.669668      -562.4503
   3   1.0000     -20.668834      -562.4276
   4   1.0000     -20.666350      -562.3600
   5   1.0000      -4.031206      -109.6947
   6   1.0000      -4.031167      -109.6936
   7   1.0000      -4.026240      -109.5595
   8   1.0000      -4.026166      -109.5575
   9   1.0000      -4.025859      -109.5492
  10   1.0000      -4.025745      -109.5461
  11   1.0000      -4.025484      -109.5390
  12   1.0000      -4.025478      -109.5388
  13   1.0000      -4.024897      -109.5230
  14   1.0000      -4.024886      -109.5227
  15   1.0000      -4.021260      -109.4240
  16   1.0000      -4.021233      -109.4233
  17   1.0000      -4.015258      -109.2607
  18   1.0000      -4.015221      -109.2597
  19   1.0000      -2.803494       -76.2869
  20   1.0000      -2.248156       -61.1754
  21   1.0000      -2.248071       -61.1731
  22   1.0000      -2.243746       -61.0554
  23   1.0000      -2.243578       -61.0509
  24   1.0000      -2.243198       -61.0405
  25   1.0000      -2.243055       -61.0366
  26   1.0000      -2.242972       -61.0344
  27   1.0000      -2.242779       -61.0291
  28   1.0000      -2.241228       -60.9869
  29   1.0000      -2.241209       -60.9864
  30   1.0000      -2.240798       -60.9752
  31   1.0000      -2.240641       -60.9709
  32   1.0000      -2.240572       -60.9691
  33   1.0000      -2.239947       -60.9521
  34   1.0000      -2.239015       -60.9267
  35   1.0000      -2.238824       -60.9215
  36   1.0000      -2.238779       -60.9203
  37   1.0000      -2.238491       -60.9124
  38   1.0000      -2.238377       -60.9093
  39   1.0000      -2.237772       -60.8929
  40   1.0000      -2.237611       -60.8885
  41   1.0000      -2.237275       -60.8793
  42   1.0000      -2.237223       -60.8779
  43   1.0000      -2.236828       -60.8672
  44   1.0000      -2.236591       -60.8607
  45   1.0000      -2.236458       -60.8571
  46   1.0000      -2.236419       -60.8561
  47   1.0000      -2.235969       -60.8438
  48   1.0000      -2.235385       -60.8279
  49   1.0000      -2.234910       -60.8150
  50   1.0000      -2.234837       -60.8130
  51   1.0000      -2.234655       -60.8081
  52   1.0000      -2.232467       -60.7485
  53   1.0000      -2.232247       -60.7425
  54   1.0000      -2.232237       -60.7423
  55   1.0000      -2.232089       -60.7382
  56   1.0000      -2.230446       -60.6935
  57   1.0000      -2.230410       -60.6925
  58   1.0000      -2.227012       -60.6001
  59   1.0000      -2.226959       -60.5986
  60   1.0000      -2.226111       -60.5756
  61   1.0000      -2.226086       -60.5749
  62   1.0000      -1.794852       -48.8404
  63   1.0000      -1.793427       -48.8016
  64   1.0000      -1.790616       -48.7251
  65   1.0000      -0.433767       -11.8034
  66   1.0000      -0.384753       -10.4697
  67   1.0000      -0.384207       -10.4548
  68   1.0000      -0.384184       -10.4542
  69   1.0000      -0.374328       -10.1860
  70   1.0000      -0.371571       -10.1110
  71   1.0000      -0.367854       -10.0098
  72   1.0000      -0.367804       -10.0085
  73   1.0000      -0.364469        -9.9177
  74   1.0000      -0.360313        -9.8046
  75   1.0000      -0.352430        -9.5901
  76   1.0000      -0.348554        -9.4846
  77   1.0000      -0.346124        -9.4185
  78   1.0000      -0.345878        -9.4118
  79   1.0000      -0.343678        -9.3520
  80   1.0000      -0.342403        -9.3173
  81   1.0000      -0.340317        -9.2605
  82   1.0000      -0.338359        -9.2072
  83   1.0000      -0.335985        -9.1426
  84   1.0000      -0.335167        -9.1204
  85   1.0000      -0.334955        -9.1146
  86   1.0000      -0.333452        -9.0737
  87   1.0000      -0.332908        -9.0589
  88   1.0000      -0.329476        -8.9655
  89   1.0000      -0.327691        -8.9169
  90   1.0000      -0.318890        -8.6774
  91   1.0000      -0.317015        -8.6264
  92   1.0000      -0.315550        -8.5866
  93   1.0000      -0.313819        -8.5394
  94   1.0000      -0.309818        -8.4306
  95   1.0000      -0.307546        -8.3688
  96   1.0000      -0.303395        -8.2558
  97   1.0000      -0.299652        -8.1539
  98   1.0000      -0.297777        -8.1029
  99   1.0000      -0.294630        -8.0173
 100   1.0000      -0.292544        -7.9605
 101   1.0000      -0.290766        -7.9121
 102   1.0000      -0.290189        -7.8964
 103   1.0000      -0.287754        -7.8302
 104   1.0000      -0.287634        -7.8269
 105   1.0000      -0.282281        -7.6812
 106   1.0000      -0.280707        -7.6384
 107   1.0000      -0.279593        -7.6081
 108   1.0000      -0.276892        -7.5346
 109   1.0000      -0.276825        -7.5328
 110   1.0000      -0.275108        -7.4861
 111   1.0000      -0.273474        -7.4416
 112   1.0000      -0.272990        -7.4284
 113   1.0000      -0.271937        -7.3998
 114   1.0000      -0.271316        -7.3829
 115   1.0000      -0.267219        -7.2714
 116   1.0000      -0.267047        -7.2667
 117   1.0000      -0.265905        -7.2357
 118   1.0000      -0.265015        -7.2114
 119   1.0000      -0.263883        -7.1806
 120   1.0000      -0.263515        -7.1706
 121   1.0000      -0.262046        -7.1306
 122   1.0000      -0.261416        -7.1135
 123   1.0000      -0.259595        -7.0639
 124   1.0000      -0.256887        -6.9903
 125   1.0000      -0.255002        -6.9390
 126   1.0000      -0.253798        -6.9062
 127   1.0000      -0.253647        -6.9021
 128   1.0000      -0.251467        -6.8428
 129   1.0000      -0.249712        -6.7950
 130   1.0000      -0.248884        -6.7725
 131   1.0000      -0.248419        -6.7598
 132   1.0000      -0.246462        -6.7066
 133   1.0000      -0.245681        -6.6853
 134   1.0000      -0.243487        -6.6256
 135   1.0000      -0.241928        -6.5832
 136   1.0000      -0.236441        -6.4339
 137   1.0000      -0.234553        -6.3825
 138   1.0000      -0.231912        -6.3107
 139   1.0000      -0.223658        -6.0860
 140   1.0000      -0.222477        -6.0539
 141   1.0000      -0.212781        -5.7901
 142   1.0000      -0.209905        -5.7118
 143   1.0000      -0.208578        -5.6757
 144   1.0000      -0.194735        -5.2990
 145   1.0000      -0.192982        -5.2513
 146   0.0000      -0.171308        -4.6615
 147   0.0000      -0.171227        -4.6593
 148   0.0000      -0.169596        -4.6149
 149   0.0000      -0.148144        -4.0312
 150   0.0000      -0.126939        -3.4542

                 SPIN DOWN ORBITALS
  NO   OCC          E(Eh)            E(eV)
   0   1.0000    -214.502528     -5836.9105
   1   1.0000     -24.260990      -660.1751
   2   1.0000     -20.637993      -561.5883
   3   1.0000     -20.636253      -561.5410
   4   1.0000     -20.630681      -561.3894
   5   1.0000      -4.030914      -109.6867
   6   1.0000      -4.030877      -109.6857
   7   1.0000      -4.025998      -109.5530
   8   1.0000      -4.025924      -109.5510
   9   1.0000      -4.025734      -109.5458
  10   1.0000      -4.025620      -109.5427
  11   1.0000      -4.025317      -109.5344
  12   1.0000      -4.025310      -109.5343
  13   1.0000      -4.024580      -109.5144
  14   1.0000      -4.024571      -109.5141
  15   1.0000      -4.021276      -109.4245
  16   1.0000      -4.021249      -109.4237
  17   1.0000      -4.015892      -109.2780
  18   1.0000      -4.015853      -109.2769
  19   1.0000      -2.686411       -73.1010
  20   1.0000      -2.247629       -61.1611
  21   1.0000      -2.247539       -61.1586
  22   1.0000      -2.243334       -61.0442
  23   1.0000      -2.243267       -61.0424
  24   1.0000      -2.242739       -61.0280
  25   1.0000      -2.242606       -61.0244
  26   1.0000      -2.242391       -61.0186
  27   1.0000      -2.242213       -61.0137
  28   1.0000      -2.241046       -60.9820
  29   1.0000      -2.240943       -60.9792
  30   1.0000      -2.240425       -60.9651
  31   1.0000      -2.240226       -60.9596
  32   1.0000      -2.240146       -60.9575
  33   1.0000      -2.239442       -60.9383
  34   1.0000      -2.238884       -60.9231
  35   1.0000      -2.238622       -60.9160
  36   1.0000      -2.238439       -60.9110
  37   1.0000      -2.238278       -60.9066
  38   1.0000      -2.238230       -60.9053
  39   1.0000      -2.237608       -60.8884
  40   1.0000      -2.237585       -60.8878
  41   1.0000      -2.237024       -60.8725
  42   1.0000      -2.236825       -60.8671
  43   1.0000      -2.236688       -60.8634
  44   1.0000      -2.236495       -60.8581
  45   1.0000      -2.236056       -60.8462
  46   1.0000      -2.235857       -60.8408
  47   1.0000      -2.235776       -60.8386
  48   1.0000      -2.235381       -60.8278
  49   1.0000      -2.235086       -60.8198
  50   1.0000      -2.234981       -60.8169
  51   1.0000      -2.234808       -60.8122
  52   1.0000      -2.232811       -60.7579
  53   1.0000      -2.232591       -60.7519
  54   1.0000      -2.232345       -60.7452
  55   1.0000      -2.232221       -60.7418
  56   1.0000      -2.231159       -60.7129
  57   1.0000      -2.231122       -60.7119
  58   1.0000      -2.227727       -60.6195
  59   1.0000      -2.227671       -60.6180
  60   1.0000      -2.226682       -60.5911
  61   1.0000      -2.226655       -60.5904
  62   1.0000      -1.684622       -45.8409
  63   1.0000      -1.680637       -45.7324
  64   1.0000      -1.667878       -45.3853
  65   1.0000      -0.428166       -11.6510
  66   1.0000      -0.384380       -10.4595
  67   1.0000      -0.383947       -10.4477
  68   1.0000      -0.383794       -10.4436
  69   1.0000      -0.371267       -10.1027
  70   1.0000      -0.368620       -10.0307
  71   1.0000      -0.364486        -9.9182
  72   1.0000      -0.363960        -9.9039
  73   1.0000      -0.361502        -9.8370
  74   1.0000      -0.356708        -9.7065
  75   1.0000      -0.351478        -9.5642
  76   1.0000      -0.349249        -9.5036
  77   1.0000      -0.346705        -9.4343
  78   1.0000      -0.346143        -9.4190
  79   1.0000      -0.344532        -9.3752
  80   1.0000      -0.343112        -9.3366
  81   1.0000      -0.339878        -9.2486
  82   1.0000      -0.338997        -9.2246
  83   1.0000      -0.336268        -9.1503
  84   1.0000      -0.335848        -9.1389
  85   1.0000      -0.334563        -9.1039
  86   1.0000      -0.334158        -9.0929
  87   1.0000      -0.332865        -9.0577
  88   1.0000      -0.329857        -8.9759
  89   1.0000      -0.328627        -8.9424
  90   1.0000      -0.319378        -8.6907
  91   1.0000      -0.317639        -8.6434
  92   1.0000      -0.315923        -8.5967
  93   1.0000      -0.314200        -8.5498
  94   1.0000      -0.310162        -8.4399
  95   1.0000      -0.307673        -8.3722
  96   1.0000      -0.303023        -8.2457
  97   1.0000      -0.300305        -8.1717
  98   1.0000      -0.298033        -8.1099
  99   1.0000      -0.292198        -7.9511
 100   1.0000      -0.291488        -7.9318
 101   1.0000      -0.289530        -7.8785
 102   1.0000      -0.288771        -7.8579
 103   1.0000      -0.287062        -7.8113
 104   1.0000      -0.284730        -7.7479
 105   1.0000      -0.281652        -7.6641
 106   1.0000      -0.280386        -7.6297
 107   1.0000      -0.278482        -7.5779
 108   1.0000      -0.277071        -7.5395
 109   1.0000      -0.276990        -7.5373
 110   1.0000      -0.275763        -7.5039
 111   1.0000      -0.274506        -7.4697
 112   1.0000      -0.273818        -7.4510
 113   1.0000      -0.272883        -7.4255
 114   1.0000      -0.272278        -7.4091
 115   1.0000      -0.268090        -7.2951
 116   1.0000      -0.267460        -7.2780
 117   1.0000      -0.266262        -7.2454
 118   1.0000      -0.265798        -7.2327
 119   1.0000      -0.264098        -7.1865
 120   1.0000      -0.264067        -7.1856
 121   1.0000      -0.262508        -7.1432
 122   1.0000      -0.262071        -7.1313
 123   1.0000      -0.260472        -7.0878
 124   1.0000      -0.257921        -7.0184
 125   1.0000      -0.255882        -6.9629
 126   1.0000      -0.254670        -6.9299
 127   1.0000      -0.254637        -6.9290
 128   1.0000      -0.252381        -6.8676
 129   1.0000      -0.250219        -6.8088
 130   1.0000      -0.249977        -6.8022
 131   1.0000      -0.248917        -6.7734
 132   1.0000      -0.247515        -6.7352
 133   1.0000      -0.246458        -6.7065
 134   1.0000      -0.244770        -6.6605
 135   1.0000      -0.243526        -6.6267
 136   1.0000      -0.237060        -6.4507
 137   1.0000      -0.234855        -6.3907
 138   1.0000      -0.232390        -6.3236
 139   1.0000      -0.218243        -5.9387
 140   1.0000      -0.215284        -5.8582
 141   1.0000      -0.196686        -5.3521
 142   1.0000      -0.195293        -5.3142
 143   1.0000      -0.194170        -5.2836
 144   0.0000      -0.154583        -4.2064
 145   0.0000      -0.132704        -3.6111
 146   0.0000      -0.120608        -3.2819
 147   0.0000      -0.118771        -3.2319
 148   0.0000      -0.117263        -3.1909

MULLIKEN ATOMIC CHARGES AND SPIN POPULATIONS
--------------------------------------------
   0 Au:    0.391299   -0.050027
   1 Au:    0.327804    0.054589
   2 Au:    0.603521   -0.037519
   3 Au:    0.338795   -0.012286
   4 Au:    0.381683   -0.050427
   5 Au:    0.610810   -0.052917
   6 Au:    0.631561   -0.025365
   7 Au:    0.610651   -0.052998
   8 Au:    0.603527   -0.037615
   9 Au:    0.381208   -0.050087
  10 Au:    0.327778    0.054410
  11 Au:    0.338438   -0.012441
  12 Au:    0.392238   -0.049927
  13 Au:    0.631383   -0.025192
  14 Cr:   -6.570695    2.347802
Sum of atomic charges         :   -0.0000000

LOEWDIN ATOMIC CHARGES AND SPIN POPULATIONS
-------------------------------------------
   0 Au:    0.074794   -0.070523
   1 Au:    0.148833   -0.005717
   2 Au:    0.131629   -0.090266
   3 Au:    0.046595   -0.033212
   4 Au:    0.064231   -0.068105
   5 Au:    0.147000   -0.094041
   6 Au:    0.151913   -0.088906
   7 Au:    0.146952   -0.094006
   8 Au:    0.131648   -0.090212
   9 Au:    0.064023   -0.067874
  10 Au:    0.148747   -0.005972
  11 Au:    0.046379   -0.033255
  12 Au:    0.075075   -0.070569
  13 Au:    0.151910   -0.088753
  14 Cr:   -1.529730    2.901411

  Mayer bond orders larger than 0.100000
B(  0-Au,  1-Au) :   0.3252 B(  0-Au,  4-Au) :   0.2248 B(  0-Au,  6-Au) :   0.1586
B(  0-Au,  9-Au) :   0.1075 B(  0-Au, 12-Au) :   0.1735 B(  0-Au, 14-Cr) :   0.5770
B(  1-Au,  3-Au) :   0.3229 B(  1-Au,  9-Au) :   0.3135 B(  1-Au, 14-Cr) :   0.4512
B(  2-Au,  3-Au) :   0.2525 B(  2-Au,  5-Au) :   0.1602 B(  2-Au,  6-Au) :   0.1490
B(  2-Au,  7-Au) :   0.1619 B(  2-Au,  8-Au) :   0.1912 B(  2-Au, 14-Cr) :   0.5310
B(  3-Au,  6-Au) :   0.2072 B(  3-Au,  7-Au) :   0.2000 B(  3-Au, 14-Cr) :   0.4334
B(  4-Au,  5-Au) :   0.1853 B(  4-Au,  6-Au) :   0.2206 B(  4-Au, 10-Au) :   0.3131
B(  4-Au, 12-Au) :   0.1074 B(  4-Au, 14-Cr) :   0.5452 B(  5-Au,  6-Au) :   0.1375
B(  5-Au,  8-Au) :   0.1614 B(  5-Au, 11-Au) :   0.1998 B(  5-Au, 14-Cr) :   0.5624
B(  6-Au, 14-Cr) :   0.5551 B(  7-Au,  8-Au) :   0.1597 B(  7-Au,  9-Au) :   0.1855
B(  7-Au, 13-Au) :   0.1374 B(  7-Au, 14-Cr) :   0.5618 B(  8-Au, 11-Au) :   0.2529
B(  8-Au, 13-Au) :   0.1493 B(  8-Au, 14-Cr) :   0.5300 B(  9-Au, 12-Au) :   0.2247
B(  9-Au, 13-Au) :   0.2208 B(  9-Au, 14-Cr) :   0.5458 B( 10-Au, 11-Au) :   0.3241
B( 10-Au, 12-Au) :   0.3245 B( 10-Au, 14-Cr) :   0.4516 B( 11-Au, 13-Au) :   0.2070
B( 11-Au, 14-Cr) :   0.4331 B( 12-Au, 13-Au) :   0.1583 B( 12-Au, 14-Cr) :   0.5778
B( 13-Au, 14-Cr) :   0.5554

FINAL SINGLE POINT ENERGY     -2945.840078467759

DIPOLE MOMENT
-------------
                                X             Y             Z
Electronic contribution:     -8.72041      -6.30015      -1.07294
Nuclear contribution   :      8.62633       6.23183       1.06167
                        -----------------------------------------
Total Dipole Moment    :     -0.09409      -0.06831      -0.01126
                        -----------------------------------------
Magnitude (a.u.)       :      0.11682
Magnitude (Debye)      :      0.29692

Rotational constants in cm-1:     0.001212     0.000997     0.000910
Rotational constants in MHz :    36.341299    29.879706    27.282705

                             ****ORCA TERMINATED NORMALLY****
TOTAL RUN TIME: 0 days 1 hours 21 minutes 18 seconds 655 msec
