                         Program Version 5.0.3 -  RELEASE  -
|  1> !R2SCAN def2-TZVP VERYSLOWCONV
|  2> !KDIIS
|  3> %scf
|  4>   AutoTRAHIter 200
|  5>   maxiter 400
|  6> end
|  7>
|  8> %pal nprocs 6 end
|  9>
| 10> *xyzfile 0 5 pbe.xyz
| 11>
| 12> $new_job
| 13>
| 14> !R2SCAN def2-TZVP VERYSLOWCONV
| 15> !KDIIS
| 16> %scf
| 17>   AutoTRAHIter 200
| 18>   maxiter 400
| 19> end
| 20>
| 21>
| 22> %pal nprocs 6 end
| 23>
| 24> *xyzfile 0 3 pbe.xyz
| 25>
| 26>
| 27>
| 28>
| 29>
| 30>                          ****END OF INPUT****
 Total Charge           Charge          ....    0
 Multiplicity           Mult            ....    5
 Number of Electrons    NEL             ....  290
FINAL SINGLE POINT ENERGY     -2946.301379491653

CARTESIAN COORDINATES (ANGSTROEM)
---------------------------------
  Au     7.224144    6.548428    7.981805
  Au     8.870167    4.558443    7.009359
  Au    11.017945    9.287893    8.411283
  Au    10.317770    6.637031    8.010846
  Au     6.410670    9.139128    8.666003
  Au     8.649246   10.897291    8.806437
  Au     8.749586    8.163871    9.799014
  Au    10.955362    8.229995    5.715411
  Au    10.093025   10.929489    6.293701
  Au     8.605046    6.675049    5.293246
  Au     4.778953   10.269205    6.780315
  Au     7.326877   11.076820    6.269857
  Au     6.306002    8.191638    5.795906
  Au     8.574422    9.317317    4.443175
  Cr     8.664938    8.742817    7.121321

 Multiplicity           Mult            ....    3
 Number of Electrons    NEL             ....  290
 Basis Dimension        Dim             ....  605

ORBITAL ENERGIES
----------------
                 SPIN UP ORBITALS
  NO   OCC          E(Eh)            E(eV)
   0   1.0000    -215.294773     -5858.4686
   1   1.0000     -24.596218      -669.2971
   2   1.0000     -20.863605      -567.7276
   3   1.0000     -20.862921      -567.7089
   4   1.0000     -20.861354      -567.6663
   5   1.0000      -4.121563      -112.1534
   6   1.0000      -4.121524      -112.1524
   7   1.0000      -4.116436      -112.0139
   8   1.0000      -4.116352      -112.0116
   9   1.0000      -4.116125      -112.0054
  10   1.0000      -4.116005      -112.0022
  11   1.0000      -4.115889      -111.9990
  12   1.0000      -4.115876      -111.9987
  13   1.0000      -4.115083      -111.9771
  14   1.0000      -4.115070      -111.9767
  15   1.0000      -4.111408      -111.8771
  16   1.0000      -4.111382      -111.8764
  17   1.0000      -4.106031      -111.7308
  18   1.0000      -4.105995      -111.7298
  19   1.0000      -2.914850       -79.3171
  20   1.0000      -2.311329       -62.8945
  21   1.0000      -2.311236       -62.8919
  22   1.0000      -2.306951       -62.7753
  23   1.0000      -2.306864       -62.7730
  24   1.0000      -2.306365       -62.7594
  25   1.0000      -2.306208       -62.7551
  26   1.0000      -2.306168       -62.7540
  27   1.0000      -2.305952       -62.7481
  28   1.0000      -2.304446       -62.7072
  29   1.0000      -2.304423       -62.7065
  30   1.0000      -2.303938       -62.6934
  31   1.0000      -2.303826       -62.6903
  32   1.0000      -2.303714       -62.6873
  33   1.0000      -2.302911       -62.6654
  34   1.0000      -2.302129       -62.6441
  35   1.0000      -2.302059       -62.6422
  36   1.0000      -2.301936       -62.6389
  37   1.0000      -2.301716       -62.6329
  38   1.0000      -2.301650       -62.6311
  39   1.0000      -2.300967       -62.6125
  40   1.0000      -2.300935       -62.6116
  41   1.0000      -2.300370       -62.5963
  42   1.0000      -2.300282       -62.5939
  43   1.0000      -2.300092       -62.5887
  44   1.0000      -2.299776       -62.5801
  45   1.0000      -2.299534       -62.5735
  46   1.0000      -2.299489       -62.5723
  47   1.0000      -2.299183       -62.5639
  48   1.0000      -2.298700       -62.5508
  49   1.0000      -2.298049       -62.5331
  50   1.0000      -2.298045       -62.5330
  51   1.0000      -2.297831       -62.5272
  52   1.0000      -2.295607       -62.4667
  53   1.0000      -2.295384       -62.4606
  54   1.0000      -2.295327       -62.4590
  55   1.0000      -2.295184       -62.4551
  56   1.0000      -2.293723       -62.4154
  57   1.0000      -2.293683       -62.4143
  58   1.0000      -2.290359       -62.3238
  59   1.0000      -2.290308       -62.3225
  60   1.0000      -2.289509       -62.3007
  61   1.0000      -2.289483       -62.3000
  62   1.0000      -1.862524       -50.6819
  63   1.0000      -1.861697       -50.6593
  64   1.0000      -1.860236       -50.6196
  65   1.0000      -0.438251       -11.9254
  66   1.0000      -0.390137       -10.6162
  67   1.0000      -0.389474       -10.5981
  68   1.0000      -0.389280       -10.5929
  69   1.0000      -0.382144       -10.3987
  70   1.0000      -0.379273       -10.3206
  71   1.0000      -0.375890       -10.2285
  72   1.0000      -0.375438       -10.2162
  73   1.0000      -0.372163       -10.1271
  74   1.0000      -0.368341       -10.0231
  75   1.0000      -0.360941        -9.8217
  76   1.0000      -0.357393        -9.7252
  77   1.0000      -0.354972        -9.6593
  78   1.0000      -0.354655        -9.6506
  79   1.0000      -0.352506        -9.5922
  80   1.0000      -0.351006        -9.5514
  81   1.0000      -0.349388        -9.5073
  82   1.0000      -0.347190        -9.4475
  83   1.0000      -0.344759        -9.3814
  84   1.0000      -0.343968        -9.3598
  85   1.0000      -0.343653        -9.3513
  86   1.0000      -0.342173        -9.3110
  87   1.0000      -0.341572        -9.2947
  88   1.0000      -0.338338        -9.2066
  89   1.0000      -0.336355        -9.1527
  90   1.0000      -0.327034        -8.8991
  91   1.0000      -0.325134        -8.8474
  92   1.0000      -0.323609        -8.8058
  93   1.0000      -0.322313        -8.7706
  94   1.0000      -0.318119        -8.6564
  95   1.0000      -0.315961        -8.5977
  96   1.0000      -0.311897        -8.4872
  97   1.0000      -0.308076        -8.3832
  98   1.0000      -0.306308        -8.3351
  99   1.0000      -0.303044        -8.2463
 100   1.0000      -0.300923        -8.1885
 101   1.0000      -0.298999        -8.1362
 102   1.0000      -0.298279        -8.1166
 103   1.0000      -0.296078        -8.0567
 104   1.0000      -0.295531        -8.0418
 105   1.0000      -0.289959        -7.8902
 106   1.0000      -0.288271        -7.8443
 107   1.0000      -0.286972        -7.8089
 108   1.0000      -0.283982        -7.7275
 109   1.0000      -0.283910        -7.7256
 110   1.0000      -0.282806        -7.6955
 111   1.0000      -0.280474        -7.6321
 112   1.0000      -0.280105        -7.6220
 113   1.0000      -0.279447        -7.6041
 114   1.0000      -0.279096        -7.5946
 115   1.0000      -0.274880        -7.4799
 116   1.0000      -0.274776        -7.4770
 117   1.0000      -0.273854        -7.4519
 118   1.0000      -0.272716        -7.4210
 119   1.0000      -0.271565        -7.3897
 120   1.0000      -0.271111        -7.3773
 121   1.0000      -0.269882        -7.3439
 122   1.0000      -0.269044        -7.3210
 123   1.0000      -0.267128        -7.2689
 124   1.0000      -0.264382        -7.1942
 125   1.0000      -0.262327        -7.1383
 126   1.0000      -0.261152        -7.1063
 127   1.0000      -0.260876        -7.0988
 128   1.0000      -0.258655        -7.0383
 129   1.0000      -0.256659        -6.9840
 130   1.0000      -0.256270        -6.9735
 131   1.0000      -0.255057        -6.9405
 132   1.0000      -0.253429        -6.8962
 133   1.0000      -0.252635        -6.8745
 134   1.0000      -0.248758        -6.7691
 135   1.0000      -0.246528        -6.7084
 136   1.0000      -0.243005        -6.6125
 137   1.0000      -0.241206        -6.5636
 138   1.0000      -0.238523        -6.4905
 139   1.0000      -0.229100        -6.2341
 140   1.0000      -0.228780        -6.2254
 141   1.0000      -0.217543        -5.9196
 142   1.0000      -0.213623        -5.8130
 143   1.0000      -0.211415        -5.7529
 144   1.0000      -0.199548        -5.4300
 145   1.0000      -0.197945        -5.3864
 146   0.0000      -0.169311        -4.6072
 147   0.0000      -0.168984        -4.5983
 148   0.0000      -0.166926        -4.5423
 149   0.0000      -0.143856        -3.9145
 150   0.0000      -0.121955        -3.3186

                 SPIN DOWN ORBITALS
  NO   OCC          E(Eh)            E(eV)
   0   1.0000    -215.294183     -5858.4525
   1   1.0000     -24.535797      -667.6530
   2   1.0000     -20.818884      -566.5106
   3   1.0000     -20.817012      -566.4597
   4   1.0000     -20.812402      -566.3342
   5   1.0000      -4.121425      -112.1497
   6   1.0000      -4.121389      -112.1487
   7   1.0000      -4.116379      -112.0124
   8   1.0000      -4.116295      -112.0101
   9   1.0000      -4.116160      -112.0064
  10   1.0000      -4.116035      -112.0030
  11   1.0000      -4.115847      -111.9979
  12   1.0000      -4.115838      -111.9976
  13   1.0000      -4.114908      -111.9723
  14   1.0000      -4.114897      -111.9720
  15   1.0000      -4.111680      -111.8845
  16   1.0000      -4.111654      -111.8838
  17   1.0000      -4.106741      -111.7501
  18   1.0000      -4.106702      -111.7490
  19   1.0000      -2.756168       -74.9991
  20   1.0000      -2.310828       -62.8808
  21   1.0000      -2.310729       -62.8781
  22   1.0000      -2.306601       -62.7658
  23   1.0000      -2.306572       -62.7650
  24   1.0000      -2.305968       -62.7486
  25   1.0000      -2.305819       -62.7445
  26   1.0000      -2.305661       -62.7402
  27   1.0000      -2.305468       -62.7350
  28   1.0000      -2.304226       -62.7012
  29   1.0000      -2.304114       -62.6981
  30   1.0000      -2.303656       -62.6857
  31   1.0000      -2.303484       -62.6810
  32   1.0000      -2.303341       -62.6771
  33   1.0000      -2.302493       -62.6540
  34   1.0000      -2.301961       -62.6395
  35   1.0000      -2.301864       -62.6369
  36   1.0000      -2.301616       -62.6302
  37   1.0000      -2.301481       -62.6265
  38   1.0000      -2.301459       -62.6259
  39   1.0000      -2.300978       -62.6128
  40   1.0000      -2.300798       -62.6079
  41   1.0000      -2.300115       -62.5893
  42   1.0000      -2.299982       -62.5857
  43   1.0000      -2.299898       -62.5834
  44   1.0000      -2.299698       -62.5780
  45   1.0000      -2.299239       -62.5655
  46   1.0000      -2.298989       -62.5587
  47   1.0000      -2.298914       -62.5566
  48   1.0000      -2.298660       -62.5497
  49   1.0000      -2.298223       -62.5378
  50   1.0000      -2.298143       -62.5356
  51   1.0000      -2.297982       -62.5313
  52   1.0000      -2.295942       -62.4758
  53   1.0000      -2.295681       -62.4687
  54   1.0000      -2.295548       -62.4650
  55   1.0000      -2.295388       -62.4607
  56   1.0000      -2.294580       -62.4387
  57   1.0000      -2.294536       -62.4375
  58   1.0000      -2.291277       -62.3488
  59   1.0000      -2.291222       -62.3473
  60   1.0000      -2.290250       -62.3209
  61   1.0000      -2.290222       -62.3201
  62   1.0000      -1.709604       -46.5207
  63   1.0000      -1.705369       -46.4054
  64   1.0000      -1.695051       -46.1247
  65   1.0000      -0.432497       -11.7688
  66   1.0000      -0.390612       -10.6291
  67   1.0000      -0.389970       -10.6116
  68   1.0000      -0.389241       -10.5918
  69   1.0000      -0.378836       -10.3086
  70   1.0000      -0.376155       -10.2357
  71   1.0000      -0.372425       -10.1342
  72   1.0000      -0.371234       -10.1018
  73   1.0000      -0.369129       -10.0445
  74   1.0000      -0.364499        -9.9185
  75   1.0000      -0.360115        -9.7992
  76   1.0000      -0.358366        -9.7516
  77   1.0000      -0.355767        -9.6809
  78   1.0000      -0.355170        -9.6647
  79   1.0000      -0.353718        -9.6252
  80   1.0000      -0.352164        -9.5829
  81   1.0000      -0.349116        -9.4999
  82   1.0000      -0.348108        -9.4725
  83   1.0000      -0.345434        -9.3997
  84   1.0000      -0.344861        -9.3842
  85   1.0000      -0.343495        -9.3470
  86   1.0000      -0.343029        -9.3343
  87   1.0000      -0.341858        -9.3024
  88   1.0000      -0.339040        -9.2257
  89   1.0000      -0.337796        -9.1919
  90   1.0000      -0.328069        -8.9272
  91   1.0000      -0.326436        -8.8828
  92   1.0000      -0.324631        -8.8337
  93   1.0000      -0.323075        -8.7913
  94   1.0000      -0.318837        -8.6760
  95   1.0000      -0.316339        -8.6080
  96   1.0000      -0.311717        -8.4822
  97   1.0000      -0.308995        -8.4082
  98   1.0000      -0.306663        -8.3447
  99   1.0000      -0.300549        -8.1784
 100   1.0000      -0.299661        -8.1542
 101   1.0000      -0.297825        -8.1042
 102   1.0000      -0.297020        -8.0823
 103   1.0000      -0.294639        -8.0175
 104   1.0000      -0.292493        -7.9591
 105   1.0000      -0.289447        -7.8762
 106   1.0000      -0.288236        -7.8433
 107   1.0000      -0.285879        -7.7792
 108   1.0000      -0.284635        -7.7453
 109   1.0000      -0.284507        -7.7418
 110   1.0000      -0.283933        -7.7262
 111   1.0000      -0.282520        -7.6878
 112   1.0000      -0.281646        -7.6640
 113   1.0000      -0.281243        -7.6530
 114   1.0000      -0.280554        -7.6342
 115   1.0000      -0.276093        -7.5129
 116   1.0000      -0.275606        -7.4996
 117   1.0000      -0.274442        -7.4680
 118   1.0000      -0.274027        -7.4567
 119   1.0000      -0.272022        -7.4021
 120   1.0000      -0.271998        -7.4015
 121   1.0000      -0.270571        -7.3626
 122   1.0000      -0.270080        -7.3493
 123   1.0000      -0.268720        -7.3123
 124   1.0000      -0.266032        -7.2391
 125   1.0000      -0.263754        -7.1771
 126   1.0000      -0.262485        -7.1426
 127   1.0000      -0.262425        -7.1409
 128   1.0000      -0.260075        -7.0770
 129   1.0000      -0.258031        -7.0214
 130   1.0000      -0.257644        -7.0109
 131   1.0000      -0.255859        -6.9623
 132   1.0000      -0.254990        -6.9386
 133   1.0000      -0.253882        -6.9085
 134   1.0000      -0.251441        -6.8421
 135   1.0000      -0.249961        -6.8018
 136   1.0000      -0.243828        -6.6349
 137   1.0000      -0.241476        -6.5709
 138   1.0000      -0.238929        -6.5016
 139   1.0000      -0.220408        -5.9976
 140   1.0000      -0.217259        -5.9119
 141   1.0000      -0.197210        -5.3663
 142   1.0000      -0.195722        -5.3259
 143   1.0000      -0.194456        -5.2914
 144   0.0000      -0.150270        -4.0891
 145   0.0000      -0.126733        -3.4486
 146   0.0000      -0.115775        -3.1504
 147   0.0000      -0.114065        -3.1039
 148   0.0000      -0.109172        -2.9707

MULLIKEN ATOMIC CHARGES AND SPIN POPULATIONS
--------------------------------------------
   0 Au:    0.351127   -0.085492
   1 Au:    0.291294    0.062260
   2 Au:    0.544431   -0.071063
   3 Au:    0.305690   -0.030047
   4 Au:    0.349143   -0.084069
   5 Au:    0.547024   -0.094451
   6 Au:    0.578577   -0.047464
   7 Au:    0.547071   -0.094481
   8 Au:    0.544362   -0.071041
   9 Au:    0.348559   -0.083755
  10 Au:    0.291133    0.062064
  11 Au:    0.305320   -0.030269
  12 Au:    0.352274   -0.085429
  13 Au:    0.578511   -0.047241
  14 Cr:   -5.934516    2.700479
Sum of atomic charges         :    0.0000000

LOEWDIN ATOMIC CHARGES AND SPIN POPULATIONS
-------------------------------------------
   0 Au:    0.071912   -0.092030
   1 Au:    0.145316   -0.010287
   2 Au:    0.127168   -0.113662
   3 Au:    0.043342   -0.048031
   4 Au:    0.061388   -0.089025
   5 Au:    0.142058   -0.118740
   6 Au:    0.148606   -0.109068
   7 Au:    0.142025   -0.118699
   8 Au:    0.127187   -0.113598
   9 Au:    0.061181   -0.088789
  10 Au:    0.145238   -0.010565
  11 Au:    0.043111   -0.048064
  12 Au:    0.072186   -0.092084
  13 Au:    0.148596   -0.108886
  14 Cr:   -1.479314    3.161528

  Mayer bond orders larger than 0.100000
B(  0-Au,  1-Au) :   0.3132 B(  0-Au,  4-Au) :   0.2232 B(  0-Au,  6-Au) :   0.1535
B(  0-Au, 12-Au) :   0.1674 B(  0-Au, 14-Cr) :   0.6011 B(  1-Au,  3-Au) :   0.3168
B(  1-Au,  9-Au) :   0.3031 B(  1-Au, 14-Cr) :   0.4218 B(  2-Au,  3-Au) :   0.2545
B(  2-Au,  5-Au) :   0.1518 B(  2-Au,  6-Au) :   0.1417 B(  2-Au,  7-Au) :   0.1560
B(  2-Au,  8-Au) :   0.1834 B(  2-Au, 14-Cr) :   0.5586 B(  3-Au,  6-Au) :   0.2015
B(  3-Au,  7-Au) :   0.1917 B(  3-Au, 14-Cr) :   0.4441 B(  4-Au,  5-Au) :   0.1798
B(  4-Au,  6-Au) :   0.2196 B(  4-Au, 10-Au) :   0.3027 B(  4-Au, 14-Cr) :   0.5640
B(  5-Au,  6-Au) :   0.1303 B(  5-Au,  8-Au) :   0.1555 B(  5-Au, 11-Au) :   0.1915
B(  5-Au, 14-Cr) :   0.5929 B(  6-Au, 14-Cr) :   0.5871 B(  7-Au,  8-Au) :   0.1513
B(  7-Au,  9-Au) :   0.1799 B(  7-Au, 13-Au) :   0.1302 B(  7-Au, 14-Cr) :   0.5922
B(  8-Au, 11-Au) :   0.2550 B(  8-Au, 13-Au) :   0.1421 B(  8-Au, 14-Cr) :   0.5576
B(  9-Au, 12-Au) :   0.2231 B(  9-Au, 13-Au) :   0.2197 B(  9-Au, 14-Cr) :   0.5648
B( 10-Au, 11-Au) :   0.3181 B( 10-Au, 12-Au) :   0.3125 B( 10-Au, 14-Cr) :   0.4224
B( 11-Au, 13-Au) :   0.2013 B( 11-Au, 14-Cr) :   0.4437 B( 12-Au, 13-Au) :   0.1532
B( 12-Au, 14-Cr) :   0.6020 B( 13-Au, 14-Cr) :   0.5874

FINAL SINGLE POINT ENERGY     -2946.319743221170

DIPOLE MOMENT
-------------
                                X             Y             Z
Electronic contribution:     -8.72359      -6.30263      -1.07334
Nuclear contribution   :      8.62633       6.23183       1.06167
                        -----------------------------------------
Total Dipole Moment    :     -0.09726      -0.07079      -0.01167
                        -----------------------------------------
Magnitude (a.u.)       :      0.12086
Magnitude (Debye)      :      0.30720

Rotational constants in cm-1:     0.001212     0.000997     0.000910
Rotational constants in MHz :    36.341299    29.879706    27.282705

                             ****ORCA TERMINATED NORMALLY****
TOTAL RUN TIME: 0 days 0 hours 52 minutes 46 seconds 193 msec
