                         Program Version 5.0.3 -  RELEASE  -
|  1> !RI-B2PLYP def2-TZVP def2-TZVP/C
|  2> !RIJCOSX
|  3> %pal nprocs 6 end
|  4>
|  5> *xyzfile 0 5 pbe.xyz
|  6>
|  7> $new_job
|  8>
|  9> !RI-B2PLYP def2-TZVP def2-TZVP/C
| 10> !RIJCOSX
| 11> %pal nprocs 6 end
| 12>
| 13> *xyzfile 0 3 pbe.xyz
| 14>
| 15>
| 16>
| 17>
| 18>
| 19>                          ****END OF INPUT****
 Total Charge           Charge          ....    0
 Multiplicity           Mult            ....    5
 Number of Electrons    NEL             ....  292
MP2 TOTAL ENERGY:    -3161.738103899 Eh
FINAL SINGLE POINT ENERGY     -3161.738103898940

CARTESIAN COORDINATES (ANGSTROEM)
---------------------------------
  Au     7.556493    5.540447    9.121005
  Au     5.736210    9.489030    7.502077
  Au     3.674044    8.234908    6.041816
  Au     5.893941    9.229769    4.675734
  Au     5.285677    6.646396    7.724861
  Au     6.556914    8.083021    9.849049
  Au     7.408503    5.179220    6.340537
  Au     5.454462    6.420186    4.893261
  Au     8.075436    7.449969    4.844184
  Au    10.283488    8.674300    7.194182
  Au     8.171453   10.016382    5.957003
  Au     9.855602    5.956114    7.439394
  Au     9.357517    7.631034    9.776413
  Au     8.280636   10.042675    8.758993
  Fe     7.823043    7.692104    7.491621

 Multiplicity           Mult            ....    3
 Number of Electrons    NEL             ....  292
 Basis Dimension        Dim             ....  605

ORBITAL ENERGIES
----------------
                 SPIN UP ORBITALS
  NO   OCC          E(Eh)            E(eV)
   0   1.0000    -258.344684     -7029.9163
   1   1.0000     -30.904508      -840.9544
   2   1.0000     -26.622292      -724.4294
   3   1.0000     -26.600054      -723.8243
   4   1.0000     -26.585835      -723.4374
   5   1.0000      -4.406620      -119.9102
   6   1.0000      -4.406486      -119.9066
   7   1.0000      -4.404237      -119.8454
   8   1.0000      -4.403402      -119.8227
   9   1.0000      -4.403358      -119.8215
  10   1.0000      -4.402233      -119.7908
  11   1.0000      -4.402023      -119.7851
  12   1.0000      -4.401733      -119.7772
  13   1.0000      -4.398258      -119.6827
  14   1.0000      -4.398047      -119.6769
  15   1.0000      -4.395628      -119.6111
  16   1.0000      -4.389856      -119.4541
  17   1.0000      -4.387051      -119.3777
  18   1.0000      -4.386916      -119.3741
  19   1.0000      -3.917464      -106.5996
  20   1.0000      -2.666612       -72.5622
  21   1.0000      -2.620595       -71.3100
  22   1.0000      -2.591063       -70.5064
  23   1.0000      -2.527379       -68.7735
  24   1.0000      -2.526738       -68.7560
  25   1.0000      -2.524825       -68.7040
  26   1.0000      -2.524275       -68.6890
  27   1.0000      -2.523922       -68.6794
  28   1.0000      -2.523892       -68.6786
  29   1.0000      -2.523632       -68.6715
  30   1.0000      -2.523481       -68.6674
  31   1.0000      -2.523163       -68.6588
  32   1.0000      -2.522943       -68.6528
  33   1.0000      -2.522171       -68.6318
  34   1.0000      -2.521804       -68.6218
  35   1.0000      -2.521199       -68.6053
  36   1.0000      -2.520945       -68.5984
  37   1.0000      -2.520006       -68.5728
  38   1.0000      -2.519891       -68.5697
  39   1.0000      -2.519779       -68.5667
  40   1.0000      -2.519686       -68.5641
  41   1.0000      -2.518810       -68.5403
  42   1.0000      -2.518404       -68.5292
  43   1.0000      -2.518117       -68.5214
  44   1.0000      -2.517933       -68.5164
  45   1.0000      -2.517468       -68.5038
  46   1.0000      -2.517083       -68.4933
  47   1.0000      -2.516795       -68.4855
  48   1.0000      -2.515973       -68.4631
  49   1.0000      -2.515656       -68.4545
  50   1.0000      -2.515051       -68.4380
  51   1.0000      -2.513462       -68.3948
  52   1.0000      -2.512905       -68.3796
  53   1.0000      -2.511655       -68.3456
  54   1.0000      -2.510331       -68.3096
  55   1.0000      -2.510239       -68.3071
  56   1.0000      -2.509867       -68.2969
  57   1.0000      -2.507423       -68.2304
  58   1.0000      -2.506827       -68.2142
  59   1.0000      -2.504958       -68.1634
  60   1.0000      -2.504574       -68.1529
  61   1.0000      -2.503642       -68.1276
  62   1.0000      -2.502931       -68.1082
  63   1.0000      -2.502797       -68.1046
  64   1.0000      -2.501242       -68.0623
  65   1.0000      -0.569019       -15.4838
  66   1.0000      -0.567306       -15.4372
  67   1.0000      -0.558236       -15.1904
  68   1.0000      -0.542068       -14.7504
  69   1.0000      -0.524117       -14.2619
  70   1.0000      -0.512522       -13.9464
  71   1.0000      -0.473731       -12.8909
  72   1.0000      -0.469090       -12.7646
  73   1.0000      -0.465500       -12.6669
  74   1.0000      -0.462014       -12.5720
  75   1.0000      -0.461201       -12.5499
  76   1.0000      -0.459076       -12.4921
  77   1.0000      -0.458366       -12.4728
  78   1.0000      -0.455078       -12.3833
  79   1.0000      -0.453781       -12.3480
  80   1.0000      -0.453386       -12.3373
  81   1.0000      -0.452405       -12.3106
  82   1.0000      -0.451182       -12.2773
  83   1.0000      -0.449421       -12.2294
  84   1.0000      -0.446977       -12.1629
  85   1.0000      -0.445608       -12.1256
  86   1.0000      -0.443463       -12.0672
  87   1.0000      -0.442802       -12.0492
  88   1.0000      -0.440884       -11.9971
  89   1.0000      -0.440177       -11.9778
  90   1.0000      -0.437971       -11.9178
  91   1.0000      -0.436211       -11.8699
  92   1.0000      -0.431781       -11.7494
  93   1.0000      -0.427365       -11.6292
  94   1.0000      -0.424573       -11.5532
  95   1.0000      -0.422980       -11.5099
  96   1.0000      -0.421472       -11.4688
  97   1.0000      -0.416821       -11.3423
  98   1.0000      -0.414030       -11.2663
  99   1.0000      -0.412510       -11.2250
 100   1.0000      -0.411025       -11.1846
 101   1.0000      -0.405489       -11.0339
 102   1.0000      -0.404163       -10.9978
 103   1.0000      -0.402808       -10.9610
 104   1.0000      -0.395543       -10.7633
 105   1.0000      -0.394520       -10.7354
 106   1.0000      -0.393290       -10.7020
 107   1.0000      -0.387722       -10.5505
 108   1.0000      -0.387416       -10.5421
 109   1.0000      -0.380646       -10.3579
 110   1.0000      -0.377931       -10.2840
 111   1.0000      -0.377166       -10.2632
 112   1.0000      -0.375638       -10.2216
 113   1.0000      -0.374237       -10.1835
 114   1.0000      -0.372477       -10.1356
 115   1.0000      -0.371121       -10.0987
 116   1.0000      -0.370077       -10.0703
 117   1.0000      -0.369467       -10.0537
 118   1.0000      -0.367909       -10.0113
 119   1.0000      -0.366292        -9.9673
 120   1.0000      -0.364733        -9.9249
 121   1.0000      -0.362723        -9.8702
 122   1.0000      -0.361362        -9.8332
 123   1.0000      -0.360766        -9.8169
 124   1.0000      -0.355905        -9.6847
 125   1.0000      -0.355501        -9.6737
 126   1.0000      -0.353535        -9.6202
 127   1.0000      -0.352906        -9.6031
 128   1.0000      -0.351573        -9.5668
 129   1.0000      -0.350588        -9.5400
 130   1.0000      -0.349733        -9.5167
 131   1.0000      -0.345583        -9.4038
 132   1.0000      -0.344389        -9.3713
 133   1.0000      -0.342787        -9.3277
 134   1.0000      -0.340525        -9.2662
 135   1.0000      -0.336622        -9.1599
 136   1.0000      -0.334794        -9.1102
 137   1.0000      -0.331887        -9.0311
 138   1.0000      -0.330729        -8.9996
 139   1.0000      -0.329371        -8.9626
 140   1.0000      -0.326596        -8.8871
 141   1.0000      -0.326419        -8.8823
 142   1.0000      -0.301953        -8.2166
 143   1.0000      -0.292571        -7.9613
 144   1.0000      -0.242089        -6.5876
 145   1.0000      -0.222185        -6.0460
 146   1.0000      -0.215709        -5.8697
 147   0.0000      -0.121980        -3.3193
 148   0.0000      -0.116337        -3.1657
 149   0.0000      -0.080188        -2.1820
 150   0.0000      -0.067641        -1.8406
 151   0.0000      -0.064105        -1.7444

                 SPIN DOWN ORBITALS
  NO   OCC          E(Eh)            E(eV)
   0   1.0000    -258.342686     -7029.8619
   1   1.0000     -30.812415      -838.4484
   2   1.0000     -26.523493      -721.7409
   3   1.0000     -26.518319      -721.6001
   4   1.0000     -26.514110      -721.4856
   5   1.0000      -4.406690      -119.9121
   6   1.0000      -4.406573      -119.9089
   7   1.0000      -4.404841      -119.8618
   8   1.0000      -4.404221      -119.8449
   9   1.0000      -4.403834      -119.8344
  10   1.0000      -4.402717      -119.8040
  11   1.0000      -4.402377      -119.7948
  12   1.0000      -4.401807      -119.7793
  13   1.0000      -4.398440      -119.6876
  14   1.0000      -4.398252      -119.6825
  15   1.0000      -4.395851      -119.6172
  16   1.0000      -4.389949      -119.4566
  17   1.0000      -4.387460      -119.3889
  18   1.0000      -4.387263      -119.3835
  19   1.0000      -3.674568       -99.9901
  20   1.0000      -2.526630       -68.7531
  21   1.0000      -2.526019       -68.7365
  22   1.0000      -2.524835       -68.7043
  23   1.0000      -2.523905       -68.6790
  24   1.0000      -2.523613       -68.6710
  25   1.0000      -2.523551       -68.6693
  26   1.0000      -2.523402       -68.6653
  27   1.0000      -2.522992       -68.6541
  28   1.0000      -2.522843       -68.6500
  29   1.0000      -2.522317       -68.6357
  30   1.0000      -2.521827       -68.6224
  31   1.0000      -2.521632       -68.6171
  32   1.0000      -2.520691       -68.5915
  33   1.0000      -2.520481       -68.5858
  34   1.0000      -2.520125       -68.5761
  35   1.0000      -2.519911       -68.5703
  36   1.0000      -2.519350       -68.5550
  37   1.0000      -2.519048       -68.5468
  38   1.0000      -2.518734       -68.5382
  39   1.0000      -2.518535       -68.5328
  40   1.0000      -2.518304       -68.5265
  41   1.0000      -2.517497       -68.5046
  42   1.0000      -2.517301       -68.4992
  43   1.0000      -2.517080       -68.4932
  44   1.0000      -2.516685       -68.4825
  45   1.0000      -2.516221       -68.4699
  46   1.0000      -2.515726       -68.4564
  47   1.0000      -2.513907       -68.4069
  48   1.0000      -2.513417       -68.3935
  49   1.0000      -2.513154       -68.3864
  50   1.0000      -2.512043       -68.3562
  51   1.0000      -2.511340       -68.3370
  52   1.0000      -2.510951       -68.3265
  53   1.0000      -2.510016       -68.3010
  54   1.0000      -2.507915       -68.2438
  55   1.0000      -2.507601       -68.2353
  56   1.0000      -2.505640       -68.1819
  57   1.0000      -2.505380       -68.1748
  58   1.0000      -2.504289       -68.1452
  59   1.0000      -2.503579       -68.1259
  60   1.0000      -2.503036       -68.1111
  61   1.0000      -2.501485       -68.0689
  62   1.0000      -2.356368       -64.1200
  63   1.0000      -2.350430       -63.9584
  64   1.0000      -2.339633       -63.6647
  65   1.0000      -0.522674       -14.2227
  66   1.0000      -0.481305       -13.0970
  67   1.0000      -0.475143       -12.9293
  68   1.0000      -0.474043       -12.8994
  69   1.0000      -0.469850       -12.7853
  70   1.0000      -0.469069       -12.7640
  71   1.0000      -0.466557       -12.6957
  72   1.0000      -0.463478       -12.6119
  73   1.0000      -0.463398       -12.6097
  74   1.0000      -0.462678       -12.5901
  75   1.0000      -0.459725       -12.5098
  76   1.0000      -0.459095       -12.4926
  77   1.0000      -0.457430       -12.4473
  78   1.0000      -0.455434       -12.3930
  79   1.0000      -0.455166       -12.3857
  80   1.0000      -0.452618       -12.3164
  81   1.0000      -0.452196       -12.3049
  82   1.0000      -0.448590       -12.2068
  83   1.0000      -0.446514       -12.1503
  84   1.0000      -0.445868       -12.1327
  85   1.0000      -0.442848       -12.0505
  86   1.0000      -0.437967       -11.9177
  87   1.0000      -0.436957       -11.8902
  88   1.0000      -0.435707       -11.8562
  89   1.0000      -0.432406       -11.7664
  90   1.0000      -0.425228       -11.5711
  91   1.0000      -0.422243       -11.4898
  92   1.0000      -0.421270       -11.4633
  93   1.0000      -0.417653       -11.3649
  94   1.0000      -0.415135       -11.2964
  95   1.0000      -0.414508       -11.2793
  96   1.0000      -0.412082       -11.2133
  97   1.0000      -0.408400       -11.1131
  98   1.0000      -0.405514       -11.0346
  99   1.0000      -0.399107       -10.8602
 100   1.0000      -0.397623       -10.8199
 101   1.0000      -0.396073       -10.7777
 102   1.0000      -0.395101       -10.7512
 103   1.0000      -0.391393       -10.6503
 104   1.0000      -0.390176       -10.6172
 105   1.0000      -0.387737       -10.5508
 106   1.0000      -0.385470       -10.4892
 107   1.0000      -0.381878       -10.3914
 108   1.0000      -0.379196       -10.3185
 109   1.0000      -0.377451       -10.2710
 110   1.0000      -0.374666       -10.1952
 111   1.0000      -0.372886       -10.1468
 112   1.0000      -0.371735       -10.1154
 113   1.0000      -0.371223       -10.1015
 114   1.0000      -0.370489       -10.0815
 115   1.0000      -0.366434        -9.9712
 116   1.0000      -0.364955        -9.9309
 117   1.0000      -0.364319        -9.9136
 118   1.0000      -0.362695        -9.8694
 119   1.0000      -0.358665        -9.7598
 120   1.0000      -0.358046        -9.7429
 121   1.0000      -0.355806        -9.6820
 122   1.0000      -0.355643        -9.6775
 123   1.0000      -0.353224        -9.6117
 124   1.0000      -0.352358        -9.5882
 125   1.0000      -0.351898        -9.5756
 126   1.0000      -0.347800        -9.4641
 127   1.0000      -0.346579        -9.4309
 128   1.0000      -0.345658        -9.4058
 129   1.0000      -0.341713        -9.2985
 130   1.0000      -0.339241        -9.2312
 131   1.0000      -0.338063        -9.1992
 132   1.0000      -0.333903        -9.0860
 133   1.0000      -0.333182        -9.0664
 134   1.0000      -0.332156        -9.0384
 135   1.0000      -0.330011        -8.9801
 136   1.0000      -0.327651        -8.9158
 137   1.0000      -0.327210        -8.9038
 138   1.0000      -0.318291        -8.6611
 139   1.0000      -0.310980        -8.4622
 140   1.0000      -0.249497        -6.7892
 141   1.0000      -0.233975        -6.3668
 142   1.0000      -0.228652        -6.2219
 143   1.0000      -0.216390        -5.8883
 144   1.0000      -0.198492        -5.4013
 145   0.0000      -0.089327        -2.4307
 146   0.0000      -0.074036        -2.0146
 147   0.0000      -0.064837        -1.7643
 148   0.0000      -0.062142        -1.6910
 149   0.0000      -0.053055        -1.4437

MULLIKEN ATOMIC CHARGES AND SPIN POPULATIONS
--------------------------------------------
   0 Au:    0.302761   -0.191136
   1 Au:   -0.164859   -0.213386
   2 Au:    0.378325    0.062376
   3 Au:    0.106135    0.066992
   4 Au:   -0.153708   -0.189010
   5 Au:    0.308008   -0.141382
   6 Au:    0.116585   -0.190806
   7 Au:    0.104086    0.048345
   8 Au:    0.106804   -0.166263
   9 Au:    0.252799   -0.134642
  10 Au:    0.106263   -0.219932
  11 Au:    0.254516   -0.139720
  12 Au:    0.220359    0.054991
  13 Au:    0.309058   -0.168514
  14 Fe:   -2.247132    3.522087
Sum of atomic charges         :   -0.0000000

LOEWDIN ATOMIC CHARGES AND SPIN POPULATIONS
-------------------------------------------
   0 Au:    0.042911   -0.176978
   1 Au:   -0.026771   -0.135689
   2 Au:    0.104370    0.016484
   3 Au:   -0.032350    0.013571
   4 Au:   -0.027337   -0.132875
   5 Au:    0.069059   -0.153673
   6 Au:    0.027345   -0.172987
   7 Au:   -0.035574    0.006824
   8 Au:    0.033911   -0.106072
   9 Au:    0.066208   -0.144226
  10 Au:    0.020001   -0.189157
  11 Au:    0.067615   -0.144529
  12 Au:    0.017540    0.000741
  13 Au:    0.048345   -0.163576
  14 Fe:   -0.375270    3.482141

  Mayer bond orders larger than 0.100000
B(  0-Au,  4-Au) :   0.1740 B(  0-Au,  5-Au) :   0.1322 B(  0-Au,  6-Au) :   0.1662
B(  0-Au, 11-Au) :   0.1327 B(  0-Au, 12-Au) :   0.1803 B(  0-Au, 14-Fe) :   0.4052
B(  1-Au,  2-Au) :   0.2834 B(  1-Au,  3-Au) :   0.2427 B(  1-Au,  4-Au) :   0.2251
B(  1-Au,  5-Au) :   0.1639 B(  1-Au, 10-Au) :   0.1460 B(  1-Au, 13-Au) :   0.1595
B(  1-Au, 14-Fe) :   0.4607 B(  2-Au,  3-Au) :   0.2053 B(  2-Au,  4-Au) :   0.2889
B(  2-Au,  7-Au) :   0.2094 B(  3-Au,  7-Au) :   0.2145 B(  3-Au,  8-Au) :   0.2489
B(  3-Au, 10-Au) :   0.3216 B(  3-Au, 14-Fe) :   0.1373 B(  4-Au,  5-Au) :   0.1557
B(  4-Au,  6-Au) :   0.1508 B(  4-Au,  7-Au) :   0.2486 B(  4-Au, 14-Fe) :   0.4596
B(  5-Au, 12-Au) :   0.2022 B(  5-Au, 13-Au) :   0.1315 B(  5-Au, 14-Fe) :   0.4025
B(  6-Au,  7-Au) :   0.3201 B(  6-Au,  8-Au) :   0.1678 B(  6-Au, 11-Au) :   0.1860
B(  6-Au, 14-Fe) :   0.4308 B(  7-Au,  8-Au) :   0.2504 B(  7-Au, 14-Fe) :   0.1320
B(  8-Au, 10-Au) :   0.1609 B(  8-Au, 14-Fe) :   0.4656 B(  9-Au, 10-Au) :   0.1901
B(  9-Au, 11-Au) :   0.2224 B(  9-Au, 12-Au) :   0.1013 B(  9-Au, 13-Au) :   0.1284
B(  9-Au, 14-Fe) :   0.4724 B( 10-Au, 13-Au) :   0.1727 B( 10-Au, 14-Fe) :   0.4181
B( 11-Au, 12-Au) :   0.1101 B( 11-Au, 14-Fe) :   0.4589 B( 12-Au, 13-Au) :   0.1852
B( 12-Au, 14-Fe) :   0.4219 B( 13-Au, 14-Fe) :   0.4134

MP2 TOTAL ENERGY:    -3161.732790188 Eh
FINAL SINGLE POINT ENERGY     -3161.732790188309

DIPOLE MOMENT
-------------
                                X             Y             Z
Electronic contribution:    -21.61709       2.48540     -12.80444
Nuclear contribution   :     21.63164      -2.46525      12.99218
                        -----------------------------------------
Total Dipole Moment    :      0.01455       0.02016       0.18775
                        -----------------------------------------
Magnitude (a.u.)       :      0.18938
Magnitude (Debye)      :      0.48138

Rotational constants in cm-1:     0.001317     0.000964     0.000921
Rotational constants in MHz :    39.475956    28.890274    27.599067

                             ****ORCA TERMINATED NORMALLY****
TOTAL RUN TIME: 0 days 0 hours 30 minutes 59 seconds 689 msec
