                         Program Version 5.0.3 -  RELEASE  -
|  1> !PBE def2-TZVP VERYSLOWCONV
|  2>
|  3> %pal nprocs 6 end
|  4>
|  5> *xyzfile 0 5 pbe.xyz
|  6>
|  7> $new_job
|  8>
|  9> !PBE def2-TZVP VERYSLOWCONV
| 10>
| 11>
| 12> %pal nprocs 6 end
| 13>
| 14> *xyzfile 0 3 pbe.xyz
| 15>
| 16>
| 17>
| 18>
| 19>
| 20>                          ****END OF INPUT****
 Total Charge           Charge          ....    0
 Multiplicity           Mult            ....    5
 Number of Electrons    NEL             ....  292
FINAL SINGLE POINT ENERGY     -3165.070503428276

CARTESIAN COORDINATES (ANGSTROEM)
---------------------------------
  Au     7.556493    5.540447    9.121005
  Au     5.736210    9.489030    7.502077
  Au     3.674044    8.234908    6.041816
  Au     5.893941    9.229769    4.675734
  Au     5.285677    6.646396    7.724861
  Au     6.556914    8.083021    9.849049
  Au     7.408503    5.179220    6.340537
  Au     5.454462    6.420186    4.893261
  Au     8.075436    7.449969    4.844184
  Au    10.283488    8.674300    7.194182
  Au     8.171453   10.016382    5.957003
  Au     9.855602    5.956114    7.439394
  Au     9.357517    7.631034    9.776413
  Au     8.280636   10.042675    8.758993
  Fe     7.823043    7.692104    7.491621

 Multiplicity           Mult            ....    3
 Number of Electrons    NEL             ....  292
 Basis Dimension        Dim             ....  605

ORBITAL ENERGIES
----------------
                 SPIN UP ORBITALS
  NO   OCC          E(Eh)            E(eV)
   0   1.0000    -254.749529     -6932.0871
   1   1.0000     -29.584959      -805.0477
   2   1.0000     -25.526920      -694.6228
   3   1.0000     -25.523332      -694.5252
   4   1.0000     -25.511916      -694.2145
   5   1.0000      -4.033627      -109.7606
   6   1.0000      -4.033450      -109.7558
   7   1.0000      -4.032110      -109.7193
   8   1.0000      -4.031601      -109.7054
   9   1.0000      -4.031551      -109.7041
  10   1.0000      -4.030857      -109.6852
  11   1.0000      -4.030774      -109.6829
  12   1.0000      -4.028353      -109.6171
  13   1.0000      -4.025198      -109.5312
  14   1.0000      -4.025053      -109.5273
  15   1.0000      -4.020614      -109.4065
  16   1.0000      -4.016710      -109.3002
  17   1.0000      -4.016613      -109.2976
  18   1.0000      -4.015056      -109.2552
  19   1.0000      -3.361853       -91.4807
  20   1.0000      -2.248914       -61.1960
  21   1.0000      -2.248800       -61.1930
  22   1.0000      -2.248142       -61.1751
  23   1.0000      -2.247709       -61.1633
  24   1.0000      -2.247274       -61.1514
  25   1.0000      -2.247105       -61.1468
  26   1.0000      -2.246436       -61.1286
  27   1.0000      -2.246172       -61.1215
  28   1.0000      -2.245807       -61.1115
  29   1.0000      -2.245712       -61.1089
  30   1.0000      -2.244828       -61.0849
  31   1.0000      -2.244564       -61.0777
  32   1.0000      -2.244316       -61.0709
  33   1.0000      -2.243437       -61.0470
  34   1.0000      -2.243132       -61.0387
  35   1.0000      -2.243096       -61.0377
  36   1.0000      -2.242939       -61.0335
  37   1.0000      -2.242832       -61.0306
  38   1.0000      -2.242605       -61.0244
  39   1.0000      -2.242079       -61.0101
  40   1.0000      -2.242012       -61.0082
  41   1.0000      -2.241359       -60.9905
  42   1.0000      -2.241283       -60.9884
  43   1.0000      -2.240959       -60.9796
  44   1.0000      -2.239843       -60.9492
  45   1.0000      -2.239647       -60.9439
  46   1.0000      -2.239586       -60.9422
  47   1.0000      -2.237441       -60.8839
  48   1.0000      -2.235278       -60.8250
  49   1.0000      -2.234557       -60.8054
  50   1.0000      -2.234388       -60.8008
  51   1.0000      -2.233421       -60.7745
  52   1.0000      -2.232804       -60.7577
  53   1.0000      -2.232485       -60.7490
  54   1.0000      -2.232435       -60.7476
  55   1.0000      -2.229965       -60.6804
  56   1.0000      -2.229200       -60.6596
  57   1.0000      -2.228580       -60.6427
  58   1.0000      -2.227591       -60.6158
  59   1.0000      -2.227302       -60.6080
  60   1.0000      -2.226378       -60.5828
  61   1.0000      -2.225551       -60.5603
  62   1.0000      -2.188523       -59.5527
  63   1.0000      -2.180802       -59.3426
  64   1.0000      -2.158176       -58.7270
  65   1.0000      -0.438019       -11.9191
  66   1.0000      -0.389723       -10.6049
  67   1.0000      -0.388135       -10.5617
  68   1.0000      -0.383623       -10.4389
  69   1.0000      -0.375629       -10.2214
  70   1.0000      -0.375133       -10.2079
  71   1.0000      -0.371514       -10.1094
  72   1.0000      -0.368091       -10.0163
  73   1.0000      -0.366486        -9.9726
  74   1.0000      -0.362243        -9.8571
  75   1.0000      -0.355573        -9.6756
  76   1.0000      -0.355214        -9.6659
  77   1.0000      -0.353014        -9.6060
  78   1.0000      -0.351011        -9.5515
  79   1.0000      -0.347813        -9.4645
  80   1.0000      -0.347149        -9.4464
  81   1.0000      -0.346304        -9.4234
  82   1.0000      -0.342331        -9.3153
  83   1.0000      -0.340878        -9.2758
  84   1.0000      -0.340049        -9.2532
  85   1.0000      -0.339848        -9.2477
  86   1.0000      -0.336902        -9.1676
  87   1.0000      -0.335069        -9.1177
  88   1.0000      -0.332603        -9.0506
  89   1.0000      -0.327769        -8.9191
  90   1.0000      -0.325045        -8.8449
  91   1.0000      -0.323559        -8.8045
  92   1.0000      -0.319447        -8.6926
  93   1.0000      -0.317306        -8.6343
  94   1.0000      -0.317095        -8.6286
  95   1.0000      -0.312690        -8.5087
  96   1.0000      -0.311564        -8.4781
  97   1.0000      -0.308621        -8.3980
  98   1.0000      -0.307911        -8.3787
  99   1.0000      -0.301884        -8.2147
 100   1.0000      -0.301027        -8.1914
 101   1.0000      -0.297738        -8.1018
 102   1.0000      -0.296824        -8.0770
 103   1.0000      -0.295711        -8.0467
 104   1.0000      -0.294383        -8.0106
 105   1.0000      -0.293309        -7.9814
 106   1.0000      -0.289759        -7.8847
 107   1.0000      -0.284987        -7.7549
 108   1.0000      -0.284634        -7.7453
 109   1.0000      -0.281430        -7.6581
 110   1.0000      -0.277702        -7.5567
 111   1.0000      -0.276048        -7.5117
 112   1.0000      -0.275020        -7.4837
 113   1.0000      -0.274827        -7.4784
 114   1.0000      -0.272362        -7.4113
 115   1.0000      -0.272119        -7.4047
 116   1.0000      -0.267374        -7.2756
 117   1.0000      -0.265890        -7.2352
 118   1.0000      -0.264209        -7.1895
 119   1.0000      -0.263147        -7.1606
 120   1.0000      -0.262664        -7.1474
 121   1.0000      -0.261671        -7.1204
 122   1.0000      -0.259713        -7.0672
 123   1.0000      -0.257087        -6.9957
 124   1.0000      -0.256673        -6.9844
 125   1.0000      -0.256444        -6.9782
 126   1.0000      -0.253658        -6.9024
 127   1.0000      -0.253283        -6.8922
 128   1.0000      -0.252100        -6.8600
 129   1.0000      -0.251848        -6.8531
 130   1.0000      -0.251558        -6.8453
 131   1.0000      -0.250216        -6.8087
 132   1.0000      -0.249709        -6.7949
 133   1.0000      -0.247656        -6.7391
 134   1.0000      -0.245404        -6.6778
 135   1.0000      -0.245244        -6.6734
 136   1.0000      -0.243873        -6.6361
 137   1.0000      -0.242532        -6.5996
 138   1.0000      -0.241759        -6.5786
 139   1.0000      -0.239908        -6.5282
 140   1.0000      -0.239283        -6.5112
 141   1.0000      -0.238379        -6.4866
 142   1.0000      -0.236154        -6.4261
 143   1.0000      -0.231779        -6.3070
 144   1.0000      -0.212193        -5.7741
 145   1.0000      -0.202939        -5.5222
 146   1.0000      -0.197274        -5.3681
 147   0.0000      -0.184091        -5.0094
 148   0.0000      -0.179826        -4.8933
 149   0.0000      -0.141188        -3.8419
 150   0.0000      -0.133033        -3.6200
 151   0.0000      -0.124743        -3.3944

                 SPIN DOWN ORBITALS
  NO   OCC          E(Eh)            E(eV)
   0   1.0000    -254.748895     -6932.0699
   1   1.0000     -29.529722      -803.5446
   2   1.0000     -25.482925      -693.4256
   3   1.0000     -25.481007      -693.3734
   4   1.0000     -25.473128      -693.1591
   5   1.0000      -4.033786      -109.7649
   6   1.0000      -4.033637      -109.7608
   7   1.0000      -4.032251      -109.7231
   8   1.0000      -4.031734      -109.7091
   9   1.0000      -4.031673      -109.7074
  10   1.0000      -4.031244      -109.6957
  11   1.0000      -4.031168      -109.6937
  12   1.0000      -4.027900      -109.6047
  13   1.0000      -4.025206      -109.5314
  14   1.0000      -4.025057      -109.5274
  15   1.0000      -4.021045      -109.4182
  16   1.0000      -4.017198      -109.3135
  17   1.0000      -4.017101      -109.3109
  18   1.0000      -4.015708      -109.2730
  19   1.0000      -3.236771       -88.0770
  20   1.0000      -2.249049       -61.1997
  21   1.0000      -2.248959       -61.1973
  22   1.0000      -2.248297       -61.1793
  23   1.0000      -2.247811       -61.1661
  24   1.0000      -2.247237       -61.1504
  25   1.0000      -2.247013       -61.1443
  26   1.0000      -2.246562       -61.1321
  27   1.0000      -2.246188       -61.1219
  28   1.0000      -2.246103       -61.1196
  29   1.0000      -2.245758       -61.1102
  30   1.0000      -2.245003       -61.0896
  31   1.0000      -2.244826       -61.0848
  32   1.0000      -2.244554       -61.0774
  33   1.0000      -2.243766       -61.0560
  34   1.0000      -2.243447       -61.0473
  35   1.0000      -2.243410       -61.0463
  36   1.0000      -2.243298       -61.0433
  37   1.0000      -2.243123       -61.0385
  38   1.0000      -2.242344       -61.0173
  39   1.0000      -2.242166       -61.0124
  40   1.0000      -2.241753       -61.0012
  41   1.0000      -2.241634       -60.9980
  42   1.0000      -2.241015       -60.9811
  43   1.0000      -2.240982       -60.9802
  44   1.0000      -2.239593       -60.9424
  45   1.0000      -2.239460       -60.9388
  46   1.0000      -2.239199       -60.9317
  47   1.0000      -2.237465       -60.8845
  48   1.0000      -2.235586       -60.8334
  49   1.0000      -2.234905       -60.8149
  50   1.0000      -2.234413       -60.8015
  51   1.0000      -2.234058       -60.7918
  52   1.0000      -2.233730       -60.7829
  53   1.0000      -2.233143       -60.7669
  54   1.0000      -2.232825       -60.7583
  55   1.0000      -2.230618       -60.6982
  56   1.0000      -2.229882       -60.6782
  57   1.0000      -2.229467       -60.6669
  58   1.0000      -2.228233       -60.6333
  59   1.0000      -2.227863       -60.6232
  60   1.0000      -2.226696       -60.5915
  61   1.0000      -2.225774       -60.5664
  62   1.0000      -2.059653       -56.0460
  63   1.0000      -2.056813       -55.9687
  64   1.0000      -2.043701       -55.6119
  65   1.0000      -0.434851       -11.8329
  66   1.0000      -0.389719       -10.6048
  67   1.0000      -0.388457       -10.5705
  68   1.0000      -0.383017       -10.4224
  69   1.0000      -0.369914       -10.0659
  70   1.0000      -0.369568       -10.0565
  71   1.0000      -0.366354        -9.9690
  72   1.0000      -0.364844        -9.9279
  73   1.0000      -0.363469        -9.8905
  74   1.0000      -0.360676        -9.8145
  75   1.0000      -0.355517        -9.6741
  76   1.0000      -0.354386        -9.6433
  77   1.0000      -0.353686        -9.6243
  78   1.0000      -0.350828        -9.5465
  79   1.0000      -0.348095        -9.4721
  80   1.0000      -0.347153        -9.4465
  81   1.0000      -0.346956        -9.4412
  82   1.0000      -0.342470        -9.3191
  83   1.0000      -0.341590        -9.2951
  84   1.0000      -0.341024        -9.2797
  85   1.0000      -0.340119        -9.2551
  86   1.0000      -0.337963        -9.1964
  87   1.0000      -0.334524        -9.1029
  88   1.0000      -0.332176        -9.0390
  89   1.0000      -0.327523        -8.9123
  90   1.0000      -0.325325        -8.8525
  91   1.0000      -0.324017        -8.8170
  92   1.0000      -0.320174        -8.7124
  93   1.0000      -0.316596        -8.6150
  94   1.0000      -0.313888        -8.5413
  95   1.0000      -0.313401        -8.5281
  96   1.0000      -0.310173        -8.4402
  97   1.0000      -0.305276        -8.3070
  98   1.0000      -0.304250        -8.2791
  99   1.0000      -0.298559        -8.1242
 100   1.0000      -0.297596        -8.0980
 101   1.0000      -0.296674        -8.0729
 102   1.0000      -0.296421        -8.0660
 103   1.0000      -0.292538        -7.9604
 104   1.0000      -0.291085        -7.9208
 105   1.0000      -0.288331        -7.8459
 106   1.0000      -0.286965        -7.8087
 107   1.0000      -0.282688        -7.6923
 108   1.0000      -0.282648        -7.6912
 109   1.0000      -0.280354        -7.6288
 110   1.0000      -0.277011        -7.5378
 111   1.0000      -0.276006        -7.5105
 112   1.0000      -0.275301        -7.4913
 113   1.0000      -0.274968        -7.4823
 114   1.0000      -0.273241        -7.4353
 115   1.0000      -0.271622        -7.3912
 116   1.0000      -0.268449        -7.3049
 117   1.0000      -0.266688        -7.2569
 118   1.0000      -0.264594        -7.2000
 119   1.0000      -0.263137        -7.1603
 120   1.0000      -0.263042        -7.1577
 121   1.0000      -0.262236        -7.1358
 122   1.0000      -0.260627        -7.0920
 123   1.0000      -0.258058        -7.0221
 124   1.0000      -0.256908        -6.9908
 125   1.0000      -0.256703        -6.9852
 126   1.0000      -0.253627        -6.9016
 127   1.0000      -0.253381        -6.8948
 128   1.0000      -0.252653        -6.8750
 129   1.0000      -0.252065        -6.8590
 130   1.0000      -0.249594        -6.7918
 131   1.0000      -0.248297        -6.7565
 132   1.0000      -0.246507        -6.7078
 133   1.0000      -0.244562        -6.6549
 134   1.0000      -0.244077        -6.6417
 135   1.0000      -0.243017        -6.6128
 136   1.0000      -0.240440        -6.5427
 137   1.0000      -0.239194        -6.5088
 138   1.0000      -0.238268        -6.4836
 139   1.0000      -0.221365        -6.0236
 140   1.0000      -0.210274        -5.7219
 141   1.0000      -0.207391        -5.6434
 142   1.0000      -0.202200        -5.5021
 143   1.0000      -0.196817        -5.3557
 144   1.0000      -0.173605        -4.7240
 145   0.0000      -0.156329        -4.2539
 146   0.0000      -0.155649        -4.2354
 147   0.0000      -0.148688        -4.0460
 148   0.0000      -0.148409        -4.0384
 149   0.0000      -0.138531        -3.7696

MULLIKEN ATOMIC CHARGES AND SPIN POPULATIONS
--------------------------------------------
   0 Au:    0.356368   -0.072471
   1 Au:   -0.151995   -0.107385
   2 Au:    0.365561   -0.087504
   3 Au:    0.127869    0.028468
   4 Au:   -0.152700   -0.105199
   5 Au:    0.356269   -0.073444
   6 Au:    0.156477   -0.076832
   7 Au:    0.129575    0.026885
   8 Au:    0.154318   -0.054623
   9 Au:    0.308715   -0.082414
  10 Au:    0.156053   -0.076095
  11 Au:    0.308356   -0.083482
  12 Au:    0.252279    0.022651
  13 Au:    0.356125   -0.075300
  14 Fe:   -2.723269    2.816744
Sum of atomic charges         :   -0.0000000

LOEWDIN ATOMIC CHARGES AND SPIN POPULATIONS
-------------------------------------------
   0 Au:    0.080770   -0.080637
   1 Au:   -0.000206   -0.091351
   2 Au:    0.072201   -0.070671
   3 Au:   -0.024589   -0.007578
   4 Au:   -0.000143   -0.091314
   5 Au:    0.099285   -0.084796
   6 Au:    0.058067   -0.085559
   7 Au:   -0.024444   -0.008434
   8 Au:    0.069020   -0.038949
   9 Au:    0.091048   -0.087695
  10 Au:    0.057096   -0.085970
  11 Au:    0.090303   -0.087952
  12 Au:    0.035923   -0.008825
  13 Au:    0.081200   -0.082309
  14 Fe:   -0.685532    2.912041

  Mayer bond orders larger than 0.100000
B(  0-Au,  4-Au) :   0.1879 B(  0-Au,  5-Au) :   0.1685 B(  0-Au,  6-Au) :   0.1775
B(  0-Au, 11-Au) :   0.1586 B(  0-Au, 12-Au) :   0.2050 B(  0-Au, 14-Fe) :   0.4751
B(  1-Au,  2-Au) :   0.2990 B(  1-Au,  3-Au) :   0.2718 B(  1-Au,  4-Au) :   0.2484
B(  1-Au,  5-Au) :   0.1739 B(  1-Au, 10-Au) :   0.1872 B(  1-Au, 13-Au) :   0.1836
B(  1-Au, 14-Fe) :   0.5001 B(  2-Au,  3-Au) :   0.2496 B(  2-Au,  4-Au) :   0.3005
B(  2-Au,  7-Au) :   0.2501 B(  3-Au,  7-Au) :   0.2572 B(  3-Au,  8-Au) :   0.2871
B(  3-Au, 10-Au) :   0.3464 B(  3-Au, 14-Fe) :   0.1351 B(  4-Au,  5-Au) :   0.1703
B(  4-Au,  6-Au) :   0.1877 B(  4-Au,  7-Au) :   0.2699 B(  4-Au, 14-Fe) :   0.5007
B(  5-Au, 12-Au) :   0.2147 B(  5-Au, 13-Au) :   0.1684 B(  5-Au, 14-Fe) :   0.4368
B(  6-Au,  7-Au) :   0.3446 B(  6-Au,  8-Au) :   0.1944 B(  6-Au, 11-Au) :   0.2078
B(  6-Au, 14-Fe) :   0.4762 B(  7-Au,  8-Au) :   0.2891 B(  7-Au, 14-Fe) :   0.1361
B(  8-Au, 10-Au) :   0.1948 B(  8-Au, 14-Fe) :   0.5149 B(  9-Au, 10-Au) :   0.2078
B(  9-Au, 11-Au) :   0.2558 B(  9-Au, 12-Au) :   0.1279 B(  9-Au, 13-Au) :   0.1544
B(  9-Au, 14-Fe) :   0.5014 B( 10-Au, 13-Au) :   0.1798 B( 10-Au, 14-Fe) :   0.4727
B( 11-Au, 12-Au) :   0.1349 B( 11-Au, 14-Fe) :   0.4952 B( 12-Au, 13-Au) :   0.2081
B( 12-Au, 14-Fe) :   0.4391 B( 13-Au, 14-Fe) :   0.4773

FINAL SINGLE POINT ENERGY     -3165.062650081377

DIPOLE MOMENT
-------------
                                X             Y             Z
Electronic contribution:    -21.46811       2.45882     -12.71499
Nuclear contribution   :     21.63164      -2.46525      12.99218
                        -----------------------------------------
Total Dipole Moment    :      0.16353      -0.00643       0.27719
                        -----------------------------------------
Magnitude (a.u.)       :      0.32190
Magnitude (Debye)      :      0.81820

Rotational constants in cm-1:     0.001317     0.000964     0.000921
Rotational constants in MHz :    39.475956    28.890274    27.599067

                             ****ORCA TERMINATED NORMALLY****
TOTAL RUN TIME: 0 days 0 hours 5 minutes 50 seconds 944 msec
