                         Program Version 5.0.3 -  RELEASE  -
|  1> !R2SCAN def2-TZVP VERYSLOWCONV
|  2>
|  3> %pal nprocs 6 end
|  4> %scf
|  5>   AutoTRAHIter 200
|  6>   maxiter 400
|  7> end
|  8>
|  9> *xyzfile 0 5 pbe.xyz
| 10>
| 11> $new_job
| 12>
| 13> !R2SCAN def2-TZVP VERYSLOWCONV
| 14> %scf
| 15>   AutoTRAHIter 200
| 16>   maxiter 400
| 17> end
| 18>
| 19>
| 20> %pal nprocs 6 end
| 21>
| 22> *xyzfile 0 3 pbe.xyz
| 23>
| 24>
| 25>
| 26>
| 27>
| 28>                          ****END OF INPUT****
 Total Charge           Charge          ....    0
 Multiplicity           Mult            ....    5
 Number of Electrons    NEL             ....  292
FINAL SINGLE POINT ENERGY     -3165.563261330554

CARTESIAN COORDINATES (ANGSTROEM)
---------------------------------
  Au     7.556493    5.540447    9.121005
  Au     5.736210    9.489030    7.502077
  Au     3.674044    8.234908    6.041816
  Au     5.893941    9.229769    4.675734
  Au     5.285677    6.646396    7.724861
  Au     6.556914    8.083021    9.849049
  Au     7.408503    5.179220    6.340537
  Au     5.454462    6.420186    4.893261
  Au     8.075436    7.449969    4.844184
  Au    10.283488    8.674300    7.194182
  Au     8.171453   10.016382    5.957003
  Au     9.855602    5.956114    7.439394
  Au     9.357517    7.631034    9.776413
  Au     8.280636   10.042675    8.758993
  Fe     7.823043    7.692104    7.491621

 Multiplicity           Mult            ....    3
 Number of Electrons    NEL             ....  292
 Basis Dimension        Dim             ....  605

ORBITAL ENERGIES
----------------
                 SPIN UP ORBITALS
  NO   OCC          E(Eh)            E(eV)
   0   1.0000    -255.632007     -6956.1005
   1   1.0000     -29.928414      -814.3935
   2   1.0000     -25.766375      -701.1387
   3   1.0000     -25.762018      -701.0202
   4   1.0000     -25.748632      -700.6559
   5   1.0000      -4.124660      -112.2377
   6   1.0000      -4.124430      -112.2314
   7   1.0000      -4.123456      -112.2049
   8   1.0000      -4.122654      -112.1831
   9   1.0000      -4.122594      -112.1815
  10   1.0000      -4.122090      -112.1678
  11   1.0000      -4.122003      -112.1654
  12   1.0000      -4.119231      -112.0900
  13   1.0000      -4.116219      -112.0080
  14   1.0000      -4.116056      -112.0036
  15   1.0000      -4.110663      -111.8568
  16   1.0000      -4.106687      -111.7486
  17   1.0000      -4.106567      -111.7454
  18   1.0000      -4.105916      -111.7277
  19   1.0000      -3.507614       -95.4470
  20   1.0000      -2.312815       -62.9349
  21   1.0000      -2.312722       -62.9324
  22   1.0000      -2.312400       -62.9236
  23   1.0000      -2.311808       -62.9075
  24   1.0000      -2.311326       -62.8944
  25   1.0000      -2.311108       -62.8884
  26   1.0000      -2.310578       -62.8740
  27   1.0000      -2.310257       -62.8653
  28   1.0000      -2.309843       -62.8540
  29   1.0000      -2.309665       -62.8492
  30   1.0000      -2.308836       -62.8266
  31   1.0000      -2.308499       -62.8174
  32   1.0000      -2.308228       -62.8101
  33   1.0000      -2.307609       -62.7932
  34   1.0000      -2.306955       -62.7754
  35   1.0000      -2.306928       -62.7747
  36   1.0000      -2.306762       -62.7702
  37   1.0000      -2.306709       -62.7687
  38   1.0000      -2.306439       -62.7614
  39   1.0000      -2.306045       -62.7507
  40   1.0000      -2.305954       -62.7482
  41   1.0000      -2.305452       -62.7345
  42   1.0000      -2.305395       -62.7330
  43   1.0000      -2.304499       -62.7086
  44   1.0000      -2.303771       -62.6888
  45   1.0000      -2.303404       -62.6788
  46   1.0000      -2.303312       -62.6763
  47   1.0000      -2.301022       -62.6140
  48   1.0000      -2.299113       -62.5620
  49   1.0000      -2.298379       -62.5421
  50   1.0000      -2.297354       -62.5142
  51   1.0000      -2.296187       -62.4824
  52   1.0000      -2.295563       -62.4654
  53   1.0000      -2.295263       -62.4573
  54   1.0000      -2.295027       -62.4509
  55   1.0000      -2.292813       -62.3906
  56   1.0000      -2.291914       -62.3662
  57   1.0000      -2.291887       -62.3654
  58   1.0000      -2.291025       -62.3420
  59   1.0000      -2.290693       -62.3329
  60   1.0000      -2.289494       -62.3003
  61   1.0000      -2.288462       -62.2722
  62   1.0000      -2.288100       -62.2624
  63   1.0000      -2.278540       -62.0022
  64   1.0000      -2.251527       -61.2672
  65   1.0000      -0.443852       -12.0778
  66   1.0000      -0.395004       -10.7486
  67   1.0000      -0.394885       -10.7454
  68   1.0000      -0.392269       -10.6742
  69   1.0000      -0.387657       -10.5487
  70   1.0000      -0.385535       -10.4909
  71   1.0000      -0.383076       -10.4240
  72   1.0000      -0.379132       -10.3167
  73   1.0000      -0.375421       -10.2157
  74   1.0000      -0.371173       -10.1001
  75   1.0000      -0.364946        -9.9307
  76   1.0000      -0.364832        -9.9276
  77   1.0000      -0.361853        -9.8465
  78   1.0000      -0.360681        -9.8146
  79   1.0000      -0.357279        -9.7221
  80   1.0000      -0.357036        -9.7154
  81   1.0000      -0.355646        -9.6776
  82   1.0000      -0.351904        -9.5758
  83   1.0000      -0.350117        -9.5272
  84   1.0000      -0.349393        -9.5075
  85   1.0000      -0.348373        -9.4797
  86   1.0000      -0.345675        -9.4063
  87   1.0000      -0.344579        -9.3765
  88   1.0000      -0.342586        -9.3222
  89   1.0000      -0.337288        -9.1781
  90   1.0000      -0.333842        -9.0843
  91   1.0000      -0.332482        -9.0473
  92   1.0000      -0.329846        -8.9756
  93   1.0000      -0.327968        -8.9245
  94   1.0000      -0.327280        -8.9058
  95   1.0000      -0.322450        -8.7743
  96   1.0000      -0.320504        -8.7214
  97   1.0000      -0.319378        -8.6907
  98   1.0000      -0.318814        -8.6754
  99   1.0000      -0.312924        -8.5151
 100   1.0000      -0.310496        -8.4490
 101   1.0000      -0.307974        -8.3804
 102   1.0000      -0.306406        -8.3377
 103   1.0000      -0.304296        -8.2803
 104   1.0000      -0.304162        -8.2767
 105   1.0000      -0.302426        -8.2294
 106   1.0000      -0.299376        -8.1464
 107   1.0000      -0.294510        -8.0140
 108   1.0000      -0.294276        -8.0077
 109   1.0000      -0.289758        -7.8847
 110   1.0000      -0.286542        -7.7972
 111   1.0000      -0.284720        -7.7476
 112   1.0000      -0.283664        -7.7189
 113   1.0000      -0.283103        -7.7036
 114   1.0000      -0.280990        -7.6461
 115   1.0000      -0.280726        -7.6389
 116   1.0000      -0.275302        -7.4914
 117   1.0000      -0.274600        -7.4722
 118   1.0000      -0.272678        -7.4200
 119   1.0000      -0.272432        -7.4132
 120   1.0000      -0.271108        -7.3772
 121   1.0000      -0.270296        -7.3551
 122   1.0000      -0.268439        -7.3046
 123   1.0000      -0.266998        -7.2654
 124   1.0000      -0.265668        -7.2292
 125   1.0000      -0.264866        -7.2074
 126   1.0000      -0.264724        -7.2035
 127   1.0000      -0.263088        -7.1590
 128   1.0000      -0.262856        -7.1527
 129   1.0000      -0.260599        -7.0913
 130   1.0000      -0.259489        -7.0611
 131   1.0000      -0.259345        -7.0571
 132   1.0000      -0.258631        -7.0377
 133   1.0000      -0.257724        -7.0130
 134   1.0000      -0.254566        -6.9271
 135   1.0000      -0.253928        -6.9097
 136   1.0000      -0.250984        -6.8296
 137   1.0000      -0.250053        -6.8043
 138   1.0000      -0.248824        -6.7709
 139   1.0000      -0.247220        -6.7272
 140   1.0000      -0.246625        -6.7110
 141   1.0000      -0.245431        -6.6785
 142   1.0000      -0.243408        -6.6235
 143   1.0000      -0.242851        -6.6083
 144   1.0000      -0.215942        -5.8761
 145   1.0000      -0.204481        -5.5642
 146   1.0000      -0.198703        -5.4070
 147   0.0000      -0.182770        -4.9734
 148   0.0000      -0.177838        -4.8392
 149   0.0000      -0.136840        -3.7236
 150   0.0000      -0.129297        -3.5183
 151   0.0000      -0.119601        -3.2545

                 SPIN DOWN ORBITALS
  NO   OCC          E(Eh)            E(eV)
   0   1.0000    -255.631057     -6956.0747
   1   1.0000     -29.852380      -812.3246
   2   1.0000     -25.704465      -699.4540
   3   1.0000     -25.702792      -699.4085
   4   1.0000     -25.695791      -699.2180
   5   1.0000      -4.124972      -112.2462
   6   1.0000      -4.124777      -112.2409
   7   1.0000      -4.123709      -112.2118
   8   1.0000      -4.122932      -112.1907
   9   1.0000      -4.122863      -112.1888
  10   1.0000      -4.122690      -112.1841
  11   1.0000      -4.122607      -112.1818
  12   1.0000      -4.118963      -112.0827
  13   1.0000      -4.116375      -112.0123
  14   1.0000      -4.116208      -112.0077
  15   1.0000      -4.111307      -111.8744
  16   1.0000      -4.107223      -111.7632
  17   1.0000      -4.107101      -111.7599
  18   1.0000      -4.106625      -111.7469
  19   1.0000      -3.339366       -90.8688
  20   1.0000      -2.312863       -62.9362
  21   1.0000      -2.312742       -62.9329
  22   1.0000      -2.312460       -62.9252
  23   1.0000      -2.311950       -62.9114
  24   1.0000      -2.311305       -62.8938
  25   1.0000      -2.311059       -62.8871
  26   1.0000      -2.310715       -62.8777
  27   1.0000      -2.310274       -62.8658
  28   1.0000      -2.310204       -62.8639
  29   1.0000      -2.309729       -62.8509
  30   1.0000      -2.309080       -62.8333
  31   1.0000      -2.308905       -62.8285
  32   1.0000      -2.308583       -62.8197
  33   1.0000      -2.307954       -62.8026
  34   1.0000      -2.307439       -62.7886
  35   1.0000      -2.307404       -62.7876
  36   1.0000      -2.307171       -62.7813
  37   1.0000      -2.306924       -62.7746
  38   1.0000      -2.306421       -62.7609
  39   1.0000      -2.306280       -62.7571
  40   1.0000      -2.305911       -62.7470
  41   1.0000      -2.305502       -62.7359
  42   1.0000      -2.304992       -62.7220
  43   1.0000      -2.304700       -62.7141
  44   1.0000      -2.303356       -62.6775
  45   1.0000      -2.303272       -62.6752
  46   1.0000      -2.303041       -62.6689
  47   1.0000      -2.301101       -62.6161
  48   1.0000      -2.299484       -62.5721
  49   1.0000      -2.298798       -62.5535
  50   1.0000      -2.297546       -62.5194
  51   1.0000      -2.296898       -62.5018
  52   1.0000      -2.296800       -62.4991
  53   1.0000      -2.295927       -62.4754
  54   1.0000      -2.295857       -62.4734
  55   1.0000      -2.293674       -62.4140
  56   1.0000      -2.292924       -62.3936
  57   1.0000      -2.292685       -62.3871
  58   1.0000      -2.291694       -62.3602
  59   1.0000      -2.291372       -62.3514
  60   1.0000      -2.289849       -62.3100
  61   1.0000      -2.288762       -62.2804
  62   1.0000      -2.113933       -57.5230
  63   1.0000      -2.110993       -57.4430
  64   1.0000      -2.097270       -57.0696
  65   1.0000      -0.441825       -12.0227
  66   1.0000      -0.395514       -10.7625
  67   1.0000      -0.395264       -10.7557
  68   1.0000      -0.390323       -10.6212
  69   1.0000      -0.378719       -10.3055
  70   1.0000      -0.378090       -10.2884
  71   1.0000      -0.375074       -10.2063
  72   1.0000      -0.372619       -10.1395
  73   1.0000      -0.372289       -10.1305
  74   1.0000      -0.369718       -10.0605
  75   1.0000      -0.364834        -9.9276
  76   1.0000      -0.363848        -9.9008
  77   1.0000      -0.362910        -9.8753
  78   1.0000      -0.360333        -9.8051
  79   1.0000      -0.358055        -9.7432
  80   1.0000      -0.356944        -9.7129
  81   1.0000      -0.356752        -9.7077
  82   1.0000      -0.352009        -9.5787
  83   1.0000      -0.350957        -9.5500
  84   1.0000      -0.350573        -9.5396
  85   1.0000      -0.348925        -9.4947
  86   1.0000      -0.347123        -9.4457
  87   1.0000      -0.344071        -9.3627
  88   1.0000      -0.341811        -9.3011
  89   1.0000      -0.336849        -9.1661
  90   1.0000      -0.334338        -9.0978
  91   1.0000      -0.333112        -9.0644
  92   1.0000      -0.329469        -8.9653
  93   1.0000      -0.325769        -8.8646
  94   1.0000      -0.323093        -8.7918
  95   1.0000      -0.322867        -8.7856
  96   1.0000      -0.319246        -8.6871
  97   1.0000      -0.314372        -8.5545
  98   1.0000      -0.313263        -8.5243
  99   1.0000      -0.307364        -8.3638
 100   1.0000      -0.306084        -8.3290
 101   1.0000      -0.305387        -8.3100
 102   1.0000      -0.304955        -8.2982
 103   1.0000      -0.301106        -8.1935
 104   1.0000      -0.299558        -8.1514
 105   1.0000      -0.296871        -8.0783
 106   1.0000      -0.295586        -8.0433
 107   1.0000      -0.291231        -7.9248
 108   1.0000      -0.291202        -7.9240
 109   1.0000      -0.288871        -7.8606
 110   1.0000      -0.285319        -7.7639
 111   1.0000      -0.284431        -7.7398
 112   1.0000      -0.283725        -7.7206
 113   1.0000      -0.283542        -7.7156
 114   1.0000      -0.282148        -7.6776
 115   1.0000      -0.279744        -7.6122
 116   1.0000      -0.277025        -7.5382
 117   1.0000      -0.275480        -7.4962
 118   1.0000      -0.272925        -7.4267
 119   1.0000      -0.271442        -7.3863
 120   1.0000      -0.271243        -7.3809
 121   1.0000      -0.270305        -7.3554
 122   1.0000      -0.268836        -7.3154
 123   1.0000      -0.266390        -7.2488
 124   1.0000      -0.264807        -7.2058
 125   1.0000      -0.264733        -7.2038
 126   1.0000      -0.261672        -7.1205
 127   1.0000      -0.261512        -7.1161
 128   1.0000      -0.260735        -7.0949
 129   1.0000      -0.259392        -7.0584
 130   1.0000      -0.257014        -6.9937
 131   1.0000      -0.255892        -6.9632
 132   1.0000      -0.253327        -6.8934
 133   1.0000      -0.251911        -6.8549
 134   1.0000      -0.251013        -6.8304
 135   1.0000      -0.249929        -6.8009
 136   1.0000      -0.246980        -6.7207
 137   1.0000      -0.246307        -6.7023
 138   1.0000      -0.245352        -6.6764
 139   1.0000      -0.224342        -6.1047
 140   1.0000      -0.211867        -5.7652
 141   1.0000      -0.208441        -5.6720
 142   1.0000      -0.203057        -5.5255
 143   1.0000      -0.197214        -5.3665
 144   1.0000      -0.178939        -4.8692
 145   0.0000      -0.149014        -4.0549
 146   0.0000      -0.146641        -3.9903
 147   0.0000      -0.140057        -3.8112
 148   0.0000      -0.134931        -3.6716
 149   0.0000      -0.134746        -3.6666

MULLIKEN ATOMIC CHARGES AND SPIN POPULATIONS
--------------------------------------------
   0 Au:    0.328640   -0.094738
   1 Au:   -0.140593   -0.128803
   2 Au:    0.338052   -0.069452
   3 Au:    0.110814    0.026579
   4 Au:   -0.141871   -0.125901
   5 Au:    0.334726   -0.085296
   6 Au:    0.143450   -0.096416
   7 Au:    0.112803    0.024990
   8 Au:    0.142236   -0.082009
   9 Au:    0.273361   -0.102200
  10 Au:    0.142590   -0.095717
  11 Au:    0.273465   -0.103969
  12 Au:    0.219943    0.026785
  13 Au:    0.328692   -0.097560
  14 Fe:   -2.466308    3.003707
Sum of atomic charges         :   -0.0000000

LOEWDIN ATOMIC CHARGES AND SPIN POPULATIONS
-------------------------------------------
   0 Au:    0.073974   -0.097426
   1 Au:   -0.003571   -0.104138
   2 Au:    0.073688   -0.059414
   3 Au:   -0.029168   -0.011385
   4 Au:   -0.003555   -0.103728
   5 Au:    0.094396   -0.097696
   6 Au:    0.052421   -0.102767
   7 Au:   -0.028955   -0.012159
   8 Au:    0.063348   -0.057900
   9 Au:    0.083386   -0.102748
  10 Au:    0.051414   -0.103253
  11 Au:    0.082689   -0.103321
  12 Au:    0.027320   -0.012841
  13 Au:    0.074403   -0.098913
  14 Fe:   -0.611791    3.067690

  Mayer bond orders larger than 0.100000
B(  0-Au,  4-Au) :   0.1795 B(  0-Au,  5-Au) :   0.1543 B(  0-Au,  6-Au) :   0.1665
B(  0-Au, 11-Au) :   0.1465 B(  0-Au, 12-Au) :   0.1961 B(  0-Au, 14-Fe) :   0.4639
B(  1-Au,  2-Au) :   0.2940 B(  1-Au,  3-Au) :   0.2508 B(  1-Au,  4-Au) :   0.2292
B(  1-Au,  5-Au) :   0.1661 B(  1-Au, 10-Au) :   0.1727 B(  1-Au, 13-Au) :   0.1750
B(  1-Au, 14-Fe) :   0.4879 B(  2-Au,  3-Au) :   0.2403 B(  2-Au,  4-Au) :   0.2955
B(  2-Au,  7-Au) :   0.2410 B(  3-Au,  7-Au) :   0.2321 B(  3-Au,  8-Au) :   0.2748
B(  3-Au, 10-Au) :   0.3415 B(  3-Au, 14-Fe) :   0.1202 B(  4-Au,  5-Au) :   0.1622
B(  4-Au,  6-Au) :   0.1732 B(  4-Au,  7-Au) :   0.2487 B(  4-Au, 14-Fe) :   0.4887
B(  5-Au, 12-Au) :   0.2129 B(  5-Au, 13-Au) :   0.1546 B(  5-Au, 14-Fe) :   0.4423
B(  6-Au,  7-Au) :   0.3397 B(  6-Au,  8-Au) :   0.1814 B(  6-Au, 11-Au) :   0.1970
B(  6-Au, 14-Fe) :   0.4679 B(  7-Au,  8-Au) :   0.2771 B(  7-Au, 14-Fe) :   0.1212
B(  8-Au, 10-Au) :   0.1812 B(  8-Au, 14-Fe) :   0.5069 B(  9-Au, 10-Au) :   0.1968
B(  9-Au, 11-Au) :   0.2501 B(  9-Au, 12-Au) :   0.1106 B(  9-Au, 13-Au) :   0.1421
B(  9-Au, 14-Fe) :   0.4940 B( 10-Au, 13-Au) :   0.1687 B( 10-Au, 14-Fe) :   0.4637
B( 11-Au, 12-Au) :   0.1176 B( 11-Au, 14-Fe) :   0.4872 B( 12-Au, 13-Au) :   0.1994
B( 12-Au, 14-Fe) :   0.4074 B( 13-Au, 14-Fe) :   0.4664

FINAL SINGLE POINT ENERGY     -3165.556055608919

DIPOLE MOMENT
-------------
                                X             Y             Z
Electronic contribution:    -21.50697       2.46511     -12.70595
Nuclear contribution   :     21.63164      -2.46525      12.99218
                        -----------------------------------------
Total Dipole Moment    :      0.12467      -0.00014       0.28623
                        -----------------------------------------
Magnitude (a.u.)       :      0.31220
Magnitude (Debye)      :      0.79355

Rotational constants in cm-1:     0.001317     0.000964     0.000921
Rotational constants in MHz :    39.475956    28.890274    27.599067

                             ****ORCA TERMINATED NORMALLY****
TOTAL RUN TIME: 0 days 0 hours 24 minutes 16 seconds 941 msec
