                         Program Version 5.0.3 -  RELEASE  -
|  1> !RI-B2PLYP def2-TZVP def2-TZVP/C
|  2> !RIJCOSX VERYSLOWCONV
|  3>
|  4> %scf
|  5>   AutoTRAHIter 200
|  6>   maxiter 400
|  7> end
|  8>
|  9>
| 10> %pal nprocs 6 end
| 11>
| 12> *xyzfile 0 6 pbe.xyz
| 13>
| 14> $new_job
| 15>
| 16> !RI-B2PLYP def2-TZVP def2-TZVP/C
| 17> !RIJCOSX VERYSLOWCONV
| 18>
| 19> %scf
| 20>   AutoTRAHIter 200
| 21>   maxiter 400
| 22> end
| 23>
| 24>
| 25> %pal nprocs 6 end
| 26>
| 27> *xyzfile 0 4 pbe.xyz
| 28>
| 29>
| 30>
| 31>
| 32>
| 33>                          ****END OF INPUT****
 Total Charge           Charge          ....    0
 Multiplicity           Mult            ....    6
 Number of Electrons    NEL             ....  215
MP2 TOTAL ENERGY:    -2506.681552724 Eh
FINAL SINGLE POINT ENERGY     -2506.681552723760

CARTESIAN COORDINATES (ANGSTROEM)
---------------------------------
  Au     7.632504    5.991607    5.833179
  Au     5.753582    4.082658    7.883688
  Au     7.905755    5.890448   10.772996
  Au     8.749385    4.593875    8.634896
  Au     7.908549    3.416436    6.263170
  Au     7.605926    8.236554    4.488624
  Au     5.062597    5.412661   10.055390
  Au     5.826350    7.266973   11.937912
  Au     6.209963    8.585347    9.586665
  Au     6.874283    8.619869    7.036091
  Mn     6.869316    6.394829    8.390372

 Multiplicity           Mult            ....    4
 Number of Electrons    NEL             ....  215
 Basis Dimension        Dim             ....  445

ORBITAL ENERGIES
----------------
                 SPIN UP ORBITALS
  NO   OCC          E(Eh)            E(eV)
   0   1.0000    -237.615403     -6465.8438
   1   1.0000     -28.121709      -765.2306
   2   1.0000     -24.040118      -654.1649
   3   1.0000     -24.039130      -654.1380
   4   1.0000     -24.038262      -654.1144
   5   1.0000      -4.409829      -119.9975
   6   1.0000      -4.404634      -119.8562
   7   1.0000      -4.403658      -119.8296
   8   1.0000      -4.402474      -119.7974
   9   1.0000      -4.401062      -119.7590
  10   1.0000      -4.399723      -119.7226
  11   1.0000      -4.396689      -119.6400
  12   1.0000      -4.391656      -119.5030
  13   1.0000      -4.389962      -119.4569
  14   1.0000      -4.365271      -118.7851
  15   1.0000      -3.600476       -97.9739
  16   1.0000      -2.531459       -68.8845
  17   1.0000      -2.529193       -68.8228
  18   1.0000      -2.527908       -68.7879
  19   1.0000      -2.527093       -68.7657
  20   1.0000      -2.526184       -68.7409
  21   1.0000      -2.523317       -68.6629
  22   1.0000      -2.522108       -68.6301
  23   1.0000      -2.521722       -68.6195
  24   1.0000      -2.521170       -68.6045
  25   1.0000      -2.520135       -68.5764
  26   1.0000      -2.519730       -68.5653
  27   1.0000      -2.519424       -68.5570
  28   1.0000      -2.518059       -68.5199
  29   1.0000      -2.517150       -68.4951
  30   1.0000      -2.516522       -68.4780
  31   1.0000      -2.515982       -68.4633
  32   1.0000      -2.515541       -68.4514
  33   1.0000      -2.514399       -68.4203
  34   1.0000      -2.514144       -68.4133
  35   1.0000      -2.512893       -68.3793
  36   1.0000      -2.511040       -68.3289
  37   1.0000      -2.510197       -68.3059
  38   1.0000      -2.508802       -68.2680
  39   1.0000      -2.507780       -68.2402
  40   1.0000      -2.506145       -68.1957
  41   1.0000      -2.503530       -68.1245
  42   1.0000      -2.501165       -68.0601
  43   1.0000      -2.484885       -67.6172
  44   1.0000      -2.481786       -67.5328
  45   1.0000      -2.477767       -67.4235
  46   1.0000      -2.402305       -65.3700
  47   1.0000      -2.401312       -65.3430
  48   1.0000      -2.401171       -65.3392
  49   1.0000      -0.515175       -14.0186
  50   1.0000      -0.511114       -13.9081
  51   1.0000      -0.509240       -13.8571
  52   1.0000      -0.506344       -13.7783
  53   1.0000      -0.497568       -13.5395
  54   1.0000      -0.472372       -12.8539
  55   1.0000      -0.466491       -12.6939
  56   1.0000      -0.464881       -12.6500
  57   1.0000      -0.462059       -12.5733
  58   1.0000      -0.460400       -12.5281
  59   1.0000      -0.451246       -12.2790
  60   1.0000      -0.448225       -12.1968
  61   1.0000      -0.444654       -12.0996
  62   1.0000      -0.436514       -11.8781
  63   1.0000      -0.433448       -11.7947
  64   1.0000      -0.431339       -11.7373
  65   1.0000      -0.429763       -11.6944
  66   1.0000      -0.422543       -11.4980
  67   1.0000      -0.419307       -11.4099
  68   1.0000      -0.417059       -11.3487
  69   1.0000      -0.414248       -11.2723
  70   1.0000      -0.411974       -11.2104
  71   1.0000      -0.404182       -10.9983
  72   1.0000      -0.402257       -10.9460
  73   1.0000      -0.401876       -10.9356
  74   1.0000      -0.398559       -10.8453
  75   1.0000      -0.398014       -10.8305
  76   1.0000      -0.393399       -10.7049
  77   1.0000      -0.386802       -10.5254
  78   1.0000      -0.386110       -10.5066
  79   1.0000      -0.382765       -10.4156
  80   1.0000      -0.382560       -10.4100
  81   1.0000      -0.382163       -10.3992
  82   1.0000      -0.377927       -10.2839
  83   1.0000      -0.377493       -10.2721
  84   1.0000      -0.373334       -10.1589
  85   1.0000      -0.371921       -10.1205
  86   1.0000      -0.371262       -10.1026
  87   1.0000      -0.369546       -10.0559
  88   1.0000      -0.369048       -10.0423
  89   1.0000      -0.367706       -10.0058
  90   1.0000      -0.366915        -9.9843
  91   1.0000      -0.365450        -9.9444
  92   1.0000      -0.362815        -9.8727
  93   1.0000      -0.360888        -9.8203
  94   1.0000      -0.359261        -9.7760
  95   1.0000      -0.354920        -9.6579
  96   1.0000      -0.353650        -9.6233
  97   1.0000      -0.352577        -9.5941
  98   1.0000      -0.343057        -9.3351
  99   1.0000      -0.336633        -9.1602
 100   1.0000      -0.335522        -9.1300
 101   1.0000      -0.334110        -9.0916
 102   1.0000      -0.330865        -9.0033
 103   1.0000      -0.322884        -8.7861
 104   1.0000      -0.320510        -8.7215
 105   1.0000      -0.313136        -8.5209
 106   1.0000      -0.304152        -8.2764
 107   1.0000      -0.245862        -6.6903
 108   1.0000      -0.235771        -6.4157
 109   0.0000      -0.154706        -4.2098
 110   0.0000      -0.085197        -2.3183
 111   0.0000      -0.077120        -2.0985
 112   0.0000      -0.062756        -1.7077
 113   0.0000      -0.054938        -1.4949

                 SPIN DOWN ORBITALS
  NO   OCC          E(Eh)            E(eV)
   0   1.0000    -237.613510     -6465.7923
   1   1.0000     -28.020899      -762.4874
   2   1.0000     -23.946810      -651.6258
   3   1.0000     -23.946792      -651.6253
   4   1.0000     -23.945840      -651.5994
   5   1.0000      -4.411312      -120.0379
   6   1.0000      -4.403543      -119.8265
   7   1.0000      -4.402963      -119.8107
   8   1.0000      -4.402572      -119.8001
   9   1.0000      -4.401837      -119.7801
  10   1.0000      -4.400328      -119.7390
  11   1.0000      -4.395293      -119.6020
  12   1.0000      -4.393890      -119.5638
  13   1.0000      -4.388650      -119.4212
  14   1.0000      -4.367474      -118.8450
  15   1.0000      -3.316753       -90.2534
  16   1.0000      -2.531928       -68.8973
  17   1.0000      -2.528514       -68.8044
  18   1.0000      -2.528139       -68.7942
  19   1.0000      -2.526771       -68.7569
  20   1.0000      -2.525585       -68.7247
  21   1.0000      -2.523720       -68.6739
  22   1.0000      -2.521288       -68.6077
  23   1.0000      -2.520616       -68.5894
  24   1.0000      -2.520057       -68.5742
  25   1.0000      -2.520019       -68.5732
  26   1.0000      -2.519214       -68.5513
  27   1.0000      -2.518452       -68.5306
  28   1.0000      -2.517657       -68.5089
  29   1.0000      -2.517109       -68.4940
  30   1.0000      -2.515949       -68.4624
  31   1.0000      -2.515684       -68.4553
  32   1.0000      -2.514423       -68.4209
  33   1.0000      -2.513516       -68.3963
  34   1.0000      -2.513255       -68.3892
  35   1.0000      -2.511940       -68.3534
  36   1.0000      -2.511907       -68.3525
  37   1.0000      -2.511114       -68.3309
  38   1.0000      -2.507709       -68.2382
  39   1.0000      -2.505957       -68.1906
  40   1.0000      -2.504795       -68.1589
  41   1.0000      -2.503612       -68.1267
  42   1.0000      -2.499538       -68.0159
  43   1.0000      -2.487955       -67.7007
  44   1.0000      -2.484574       -67.6087
  45   1.0000      -2.478576       -67.4455
  46   1.0000      -2.076936       -56.5163
  47   1.0000      -2.076427       -56.5024
  48   1.0000      -2.075918       -56.4886
  49   1.0000      -0.485376       -13.2077
  50   1.0000      -0.474668       -12.9164
  51   1.0000      -0.472441       -12.8558
  52   1.0000      -0.468516       -12.7490
  53   1.0000      -0.466761       -12.7012
  54   1.0000      -0.462006       -12.5718
  55   1.0000      -0.459085       -12.4923
  56   1.0000      -0.448440       -12.2027
  57   1.0000      -0.445004       -12.1092
  58   1.0000      -0.437851       -11.9145
  59   1.0000      -0.437422       -11.9028
  60   1.0000      -0.434358       -11.8195
  61   1.0000      -0.428506       -11.6602
  62   1.0000      -0.424398       -11.5484
  63   1.0000      -0.423810       -11.5325
  64   1.0000      -0.418210       -11.3801
  65   1.0000      -0.415160       -11.2971
  66   1.0000      -0.412915       -11.2360
  67   1.0000      -0.410816       -11.1789
  68   1.0000      -0.408791       -11.1238
  69   1.0000      -0.402220       -10.9450
  70   1.0000      -0.400958       -10.9106
  71   1.0000      -0.397958       -10.8290
  72   1.0000      -0.394492       -10.7347
  73   1.0000      -0.392885       -10.6909
  74   1.0000      -0.389463       -10.5978
  75   1.0000      -0.386441       -10.5156
  76   1.0000      -0.385966       -10.5027
  77   1.0000      -0.385270       -10.4837
  78   1.0000      -0.384418       -10.4605
  79   1.0000      -0.380891       -10.3646
  80   1.0000      -0.377956       -10.2847
  81   1.0000      -0.377287       -10.2665
  82   1.0000      -0.375112       -10.2073
  83   1.0000      -0.372630       -10.1398
  84   1.0000      -0.372262       -10.1298
  85   1.0000      -0.369952       -10.0669
  86   1.0000      -0.367924       -10.0117
  87   1.0000      -0.366887        -9.9835
  88   1.0000      -0.362995        -9.8776
  89   1.0000      -0.361558        -9.8385
  90   1.0000      -0.356798        -9.7090
  91   1.0000      -0.356664        -9.7053
  92   1.0000      -0.354546        -9.6477
  93   1.0000      -0.346396        -9.4259
  94   1.0000      -0.343503        -9.3472
  95   1.0000      -0.338192        -9.2027
  96   1.0000      -0.336104        -9.1459
  97   1.0000      -0.335660        -9.1338
  98   1.0000      -0.332327        -9.0431
  99   1.0000      -0.330895        -9.0041
 100   1.0000      -0.320143        -8.7115
 101   1.0000      -0.316875        -8.6226
 102   1.0000      -0.264639        -7.2012
 103   1.0000      -0.258133        -7.0242
 104   1.0000      -0.247654        -6.7390
 105   1.0000      -0.173743        -4.7278
 106   0.0000      -0.091476        -2.4892
 107   0.0000      -0.077754        -2.1158
 108   0.0000      -0.069566        -1.8930
 109   0.0000      -0.037589        -1.0229
 110   0.0000      -0.030293        -0.8243

MULLIKEN ATOMIC CHARGES AND SPIN POPULATIONS
--------------------------------------------
   0 Au:   -0.539790   -0.120944
   1 Au:    0.122654   -0.066304
   2 Au:    0.067168    0.010054
   3 Au:    0.136685   -0.051372
   4 Au:    0.365075   -0.583525
   5 Au:    0.291753   -0.294684
   6 Au:    0.067532    0.026491
   7 Au:    0.311522   -0.361838
   8 Au:    0.064075   -0.033120
   9 Au:    0.028656   -0.123617
  10 Mn:   -0.915329    4.598860
Sum of atomic charges         :   -0.0000000

LOEWDIN ATOMIC CHARGES AND SPIN POPULATIONS
-------------------------------------------
   0 Au:   -0.112398   -0.152740
   1 Au:    0.007335   -0.150702
   2 Au:   -0.004089   -0.051202
   3 Au:    0.016172   -0.150056
   4 Au:    0.073753   -0.445976
   5 Au:    0.032580   -0.213770
   6 Au:   -0.005008   -0.038672
   7 Au:    0.121960   -0.213457
   8 Au:    0.006131   -0.062648
   9 Au:   -0.071720   -0.102735
  10 Mn:   -0.064714    4.581956

  Mayer bond orders larger than 0.100000
B(  0-Au,  4-Au) :   0.1748 B(  0-Au,  5-Au) :   0.5606 B(  0-Au,  9-Au) :   0.2369
B(  0-Au, 10-Mn) :   0.5959 B(  1-Au,  4-Au) :   0.2682 B(  1-Au,  6-Au) :   0.4918
B(  1-Au, 10-Mn) :   0.4759 B(  2-Au,  3-Au) :   0.4916 B(  2-Au,  6-Au) :   0.1428
B(  2-Au,  7-Au) :   0.3114 B(  2-Au, 10-Mn) :   0.4312 B(  3-Au,  4-Au) :   0.2480
B(  3-Au, 10-Mn) :   0.4727 B(  5-Au,  9-Au) :   0.4448 B(  6-Au,  7-Au) :   0.2963
B(  6-Au, 10-Mn) :   0.4558 B(  7-Au,  8-Au) :   0.1971 B(  8-Au,  9-Au) :   0.5051
B(  8-Au, 10-Mn) :   0.6259 B(  9-Au, 10-Mn) :   0.4204

MP2 TOTAL ENERGY:    -2506.619896043 Eh
FINAL SINGLE POINT ENERGY     -2506.619896043362

DIPOLE MOMENT
-------------
                                X             Y             Z
Electronic contribution:      2.86436      -7.00440      -4.16641
Nuclear contribution   :     -3.02685       6.70707       5.11077
                        -----------------------------------------
Total Dipole Moment    :     -0.16249      -0.29733       0.94436
                        -----------------------------------------
Magnitude (a.u.)       :      1.00331
Magnitude (Debye)      :      2.55021

Rotational constants in cm-1:     0.002030     0.001357     0.000988
Rotational constants in MHz :    60.860913    40.693668    29.633436

                             ****ORCA TERMINATED NORMALLY****
TOTAL RUN TIME: 0 days 0 hours 24 minutes 41 seconds 240 msec
