                         Program Version 5.0.3 -  RELEASE  -
|  1> !PBE def2-TZVP VERYSLOWCONV
|  2> !KDIIS
|  3>
|  4> %scf
|  5>   AutoTRAHIter 200
|  6>   maxiter 400
|  7> end
|  8>
|  9>
| 10> %pal nprocs 6 end
| 11>
| 12> *xyzfile 0 6 pbe.xyz
| 13>
| 14> $new_job
| 15>
| 16> !PBE def2-TZVP VERYSLOWCONV
| 17> !KDIIS
| 18>
| 19> %scf
| 20>   AutoTRAHIter 200
| 21>   maxiter 400
| 22> end
| 23>
| 24>
| 25> %pal nprocs 6 end
| 26>
| 27> *xyzfile 0 4 pbe.xyz
| 28>
| 29>
| 30>
| 31>
| 32>
| 33>                          ****END OF INPUT****
 Total Charge           Charge          ....    0
 Multiplicity           Mult            ....    6
 Number of Electrons    NEL             ....  215
FINAL SINGLE POINT ENERGY     -2509.042597476176

CARTESIAN COORDINATES (ANGSTROEM)
---------------------------------
  Au     7.632504    5.991607    5.833179
  Au     5.753582    4.082658    7.883688
  Au     7.905755    5.890448   10.772996
  Au     8.749385    4.593875    8.634896
  Au     7.908549    3.416436    6.263170
  Au     7.605926    8.236554    4.488624
  Au     5.062597    5.412661   10.055390
  Au     5.826350    7.266973   11.937912
  Au     6.209963    8.585347    9.586665
  Au     6.874283    8.619869    7.036091
  Mn     6.869316    6.394829    8.390372

 Multiplicity           Mult            ....    4
 Number of Electrons    NEL             ....  215
 Basis Dimension        Dim             ....  445

ORBITAL ENERGIES
----------------
                 SPIN UP ORBITALS
  NO   OCC          E(Eh)            E(eV)
   0   1.0000    -234.201324     -6372.9420
   1   1.0000     -26.893543      -731.8105
   2   1.0000     -23.048100      -627.1707
   3   1.0000     -23.042342      -627.0140
   4   1.0000     -23.040662      -626.9683
   5   1.0000      -4.031181      -109.6940
   6   1.0000      -4.025513      -109.5398
   7   1.0000      -4.025103      -109.5286
   8   1.0000      -4.024176      -109.5034
   9   1.0000      -4.024042      -109.4997
  10   1.0000      -4.023997      -109.4985
  11   1.0000      -4.023332      -109.4804
  12   1.0000      -4.023146      -109.4754
  13   1.0000      -4.021312      -109.4255
  14   1.0000      -4.009472      -109.1033
  15   1.0000      -3.088917       -84.0537
  16   1.0000      -2.250638       -61.2430
  17   1.0000      -2.247040       -61.1451
  18   1.0000      -2.245387       -61.1001
  19   1.0000      -2.244815       -61.0845
  20   1.0000      -2.244564       -61.0777
  21   1.0000      -2.241627       -60.9978
  22   1.0000      -2.240530       -60.9679
  23   1.0000      -2.240156       -60.9577
  24   1.0000      -2.239853       -60.9495
  25   1.0000      -2.239483       -60.9394
  26   1.0000      -2.238872       -60.9228
  27   1.0000      -2.238200       -60.9045
  28   1.0000      -2.237963       -60.8981
  29   1.0000      -2.237659       -60.8898
  30   1.0000      -2.236741       -60.8648
  31   1.0000      -2.235985       -60.8443
  32   1.0000      -2.235723       -60.8371
  33   1.0000      -2.235262       -60.8246
  34   1.0000      -2.234257       -60.7972
  35   1.0000      -2.233041       -60.7641
  36   1.0000      -2.232131       -60.7394
  37   1.0000      -2.230112       -60.6844
  38   1.0000      -2.230082       -60.6836
  39   1.0000      -2.229520       -60.6683
  40   1.0000      -2.229352       -60.6637
  41   1.0000      -2.228973       -60.6534
  42   1.0000      -2.228746       -60.6473
  43   1.0000      -2.228076       -60.6290
  44   1.0000      -2.223502       -60.5046
  45   1.0000      -2.215136       -60.2769
  46   1.0000      -2.004664       -54.5497
  47   1.0000      -1.986689       -54.0606
  48   1.0000      -1.983028       -53.9609
  49   1.0000      -0.403204       -10.9717
  50   1.0000      -0.380638       -10.3577
  51   1.0000      -0.375341       -10.2135
  52   1.0000      -0.365751        -9.9526
  53   1.0000      -0.364464        -9.9176
  54   1.0000      -0.361138        -9.8271
  55   1.0000      -0.357103        -9.7173
  56   1.0000      -0.341727        -9.2989
  57   1.0000      -0.339989        -9.2516
  58   1.0000      -0.336061        -9.1447
  59   1.0000      -0.331043        -9.0081
  60   1.0000      -0.329699        -8.9716
  61   1.0000      -0.326122        -8.8742
  62   1.0000      -0.324313        -8.8250
  63   1.0000      -0.320927        -8.7329
  64   1.0000      -0.318566        -8.6686
  65   1.0000      -0.318124        -8.6566
  66   1.0000      -0.316206        -8.6044
  67   1.0000      -0.314248        -8.5511
  68   1.0000      -0.309282        -8.4160
  69   1.0000      -0.305581        -8.3153
  70   1.0000      -0.301982        -8.2174
  71   1.0000      -0.300190        -8.1686
  72   1.0000      -0.297559        -8.0970
  73   1.0000      -0.296204        -8.0601
  74   1.0000      -0.292404        -7.9567
  75   1.0000      -0.290861        -7.9147
  76   1.0000      -0.288529        -7.8513
  77   1.0000      -0.286211        -7.7882
  78   1.0000      -0.285080        -7.7574
  79   1.0000      -0.281762        -7.6671
  80   1.0000      -0.277710        -7.5569
  81   1.0000      -0.276515        -7.5244
  82   1.0000      -0.274397        -7.4667
  83   1.0000      -0.274338        -7.4651
  84   1.0000      -0.270464        -7.3597
  85   1.0000      -0.269111        -7.3229
  86   1.0000      -0.268650        -7.3103
  87   1.0000      -0.267332        -7.2745
  88   1.0000      -0.266020        -7.2388
  89   1.0000      -0.264374        -7.1940
  90   1.0000      -0.263921        -7.1817
  91   1.0000      -0.259612        -7.0644
  92   1.0000      -0.257912        -7.0181
  93   1.0000      -0.256637        -6.9834
  94   1.0000      -0.255200        -6.9443
  95   1.0000      -0.251879        -6.8540
  96   1.0000      -0.249477        -6.7886
  97   1.0000      -0.248708        -6.7677
  98   1.0000      -0.247368        -6.7312
  99   1.0000      -0.246985        -6.7208
 100   1.0000      -0.243791        -6.6339
 101   1.0000      -0.242935        -6.6106
 102   1.0000      -0.241638        -6.5753
 103   1.0000      -0.240454        -6.5431
 104   1.0000      -0.231020        -6.2864
 105   1.0000      -0.228531        -6.2186
 106   1.0000      -0.226720        -6.1694
 107   1.0000      -0.209723        -5.7068
 108   1.0000      -0.209187        -5.6923
 109   0.0000      -0.195463        -5.3188
 110   0.0000      -0.152603        -4.1525
 111   0.0000      -0.144652        -3.9362
 112   0.0000      -0.130896        -3.5619
 113   0.0000      -0.126454        -3.4410

                 SPIN DOWN ORBITALS
  NO   OCC          E(Eh)            E(eV)
   0   1.0000    -234.200769     -6372.9269
   1   1.0000     -26.842201      -730.4134
   2   1.0000     -23.007211      -626.0580
   3   1.0000     -23.006842      -626.0480
   4   1.0000     -23.000068      -625.8637
   5   1.0000      -4.032804      -109.7382
   6   1.0000      -4.025657      -109.5437
   7   1.0000      -4.024529      -109.5130
   8   1.0000      -4.023676      -109.4898
   9   1.0000      -4.023126      -109.4748
  10   1.0000      -4.022897      -109.4686
  11   1.0000      -4.022523      -109.4584
  12   1.0000      -4.022290      -109.4521
  13   1.0000      -4.021139      -109.4208
  14   1.0000      -4.010247      -109.1244
  15   1.0000      -2.963020       -80.6279
  16   1.0000      -2.253300       -61.3154
  17   1.0000      -2.247662       -61.1620
  18   1.0000      -2.245876       -61.1134
  19   1.0000      -2.244370       -61.0724
  20   1.0000      -2.243663       -61.0532
  21   1.0000      -2.241258       -60.9877
  22   1.0000      -2.239836       -60.9490
  23   1.0000      -2.239417       -60.9376
  24   1.0000      -2.238942       -60.9247
  25   1.0000      -2.238553       -60.9141
  26   1.0000      -2.238237       -60.9055
  27   1.0000      -2.237917       -60.8968
  28   1.0000      -2.237489       -60.8852
  29   1.0000      -2.236749       -60.8650
  30   1.0000      -2.236271       -60.8520
  31   1.0000      -2.236101       -60.8474
  32   1.0000      -2.235581       -60.8332
  33   1.0000      -2.235095       -60.8200
  34   1.0000      -2.233958       -60.7891
  35   1.0000      -2.232728       -60.7556
  36   1.0000      -2.231928       -60.7339
  37   1.0000      -2.229546       -60.6690
  38   1.0000      -2.229167       -60.6587
  39   1.0000      -2.228920       -60.6520
  40   1.0000      -2.228804       -60.6488
  41   1.0000      -2.228638       -60.6443
  42   1.0000      -2.228069       -60.6288
  43   1.0000      -2.227473       -60.6126
  44   1.0000      -2.224337       -60.5273
  45   1.0000      -2.215709       -60.2925
  46   1.0000      -1.876493       -51.0620
  47   1.0000      -1.874375       -51.0043
  48   1.0000      -1.852811       -50.4175
  49   1.0000      -0.400025       -10.8852
  50   1.0000      -0.380730       -10.3602
  51   1.0000      -0.375291       -10.2122
  52   1.0000      -0.362561        -9.8658
  53   1.0000      -0.361944        -9.8490
  54   1.0000      -0.355663        -9.6781
  55   1.0000      -0.354763        -9.6536
  56   1.0000      -0.338356        -9.2071
  57   1.0000      -0.336364        -9.1529
  58   1.0000      -0.334602        -9.1050
  59   1.0000      -0.328197        -8.9307
  60   1.0000      -0.327134        -8.9018
  61   1.0000      -0.321098        -8.7375
  62   1.0000      -0.318501        -8.6669
  63   1.0000      -0.317488        -8.6393
  64   1.0000      -0.317019        -8.6265
  65   1.0000      -0.316093        -8.6013
  66   1.0000      -0.311487        -8.4760
  67   1.0000      -0.307744        -8.3741
  68   1.0000      -0.305942        -8.3251
  69   1.0000      -0.305651        -8.3172
  70   1.0000      -0.301025        -8.1913
  71   1.0000      -0.298600        -8.1253
  72   1.0000      -0.294216        -8.0060
  73   1.0000      -0.292745        -7.9660
  74   1.0000      -0.289555        -7.8792
  75   1.0000      -0.286142        -7.7863
  76   1.0000      -0.285091        -7.7577
  77   1.0000      -0.284613        -7.7447
  78   1.0000      -0.282257        -7.6806
  79   1.0000      -0.281071        -7.6483
  80   1.0000      -0.277777        -7.5587
  81   1.0000      -0.275577        -7.4988
  82   1.0000      -0.273864        -7.4522
  83   1.0000      -0.273207        -7.4343
  84   1.0000      -0.270796        -7.3687
  85   1.0000      -0.269203        -7.3254
  86   1.0000      -0.268517        -7.3067
  87   1.0000      -0.266919        -7.2632
  88   1.0000      -0.265899        -7.2355
  89   1.0000      -0.264686        -7.2025
  90   1.0000      -0.263802        -7.1784
  91   1.0000      -0.259519        -7.0619
  92   1.0000      -0.256240        -6.9726
  93   1.0000      -0.255616        -6.9557
  94   1.0000      -0.254630        -6.9288
  95   1.0000      -0.252466        -6.8700
  96   1.0000      -0.250045        -6.8041
  97   1.0000      -0.248103        -6.7512
  98   1.0000      -0.246706        -6.7132
  99   1.0000      -0.246470        -6.7068
 100   1.0000      -0.242150        -6.5892
 101   1.0000      -0.237951        -6.4750
 102   1.0000      -0.225614        -6.1393
 103   1.0000      -0.220000        -5.9865
 104   1.0000      -0.218544        -5.9469
 105   1.0000      -0.171551        -4.6681
 106   0.0000      -0.159191        -4.3318
 107   0.0000      -0.149531        -4.0689
 108   0.0000      -0.144435        -3.9303
 109   0.0000      -0.136360        -3.7105
 110   0.0000      -0.133527        -3.6335

MULLIKEN ATOMIC CHARGES AND SPIN POPULATIONS
--------------------------------------------
   0 Au:   -0.302043   -0.103588
   1 Au:    0.141464    0.034300
   2 Au:    0.110586    0.009749
   3 Au:    0.153089    0.046868
   4 Au:    0.346137   -0.007662
   5 Au:    0.322949   -0.244630
   6 Au:    0.118759   -0.019705
   7 Au:    0.275618   -0.048386
   8 Au:    0.121503    0.045237
   9 Au:    0.022433    0.020404
  10 Mn:   -1.310495    3.267414
Sum of atomic charges         :    0.0000000

LOEWDIN ATOMIC CHARGES AND SPIN POPULATIONS
-------------------------------------------
   0 Au:   -0.052722   -0.101680
   1 Au:    0.041132    0.034004
   2 Au:    0.020476    0.009116
   3 Au:    0.041560    0.043149
   4 Au:    0.073008   -0.024216
   5 Au:    0.074088   -0.196373
   6 Au:    0.026262   -0.021259
   7 Au:    0.048906   -0.031103
   8 Au:    0.045103    0.043496
   9 Au:    0.022256   -0.008134
  10 Mn:   -0.340069    3.253000

  Mayer bond orders larger than 0.100000
B(  0-Au,  4-Au) :   0.5241 B(  0-Au,  5-Au) :   0.5695 B(  0-Au,  9-Au) :   0.2479
B(  0-Au, 10-Mn) :   0.5751 B(  1-Au,  4-Au) :   0.2571 B(  1-Au,  6-Au) :   0.5424
B(  1-Au, 10-Mn) :   0.6418 B(  2-Au,  3-Au) :   0.5547 B(  2-Au,  6-Au) :   0.1484
B(  2-Au,  7-Au) :   0.3275 B(  2-Au, 10-Mn) :   0.5897 B(  3-Au,  4-Au) :   0.2477
B(  3-Au, 10-Mn) :   0.6271 B(  4-Au,  7-Au) :   0.1105 B(  4-Au, 10-Mn) :   0.1024
B(  5-Au,  9-Au) :   0.4017 B(  5-Au, 10-Mn) :   0.1504 B(  6-Au,  7-Au) :   0.3186
B(  6-Au, 10-Mn) :   0.6111 B(  7-Au,  8-Au) :   0.3540 B(  8-Au,  9-Au) :   0.4686
B(  8-Au, 10-Mn) :   0.6546 B(  9-Au, 10-Mn) :   0.5861

FINAL SINGLE POINT ENERGY     -2508.996251948809

DIPOLE MOMENT
-------------
                                X             Y             Z
Electronic contribution:      3.05244      -6.91255      -5.15603
Nuclear contribution   :     -3.02685       6.70707       5.11077
                        -----------------------------------------
Total Dipole Moment    :      0.02559      -0.20548      -0.04525
                        -----------------------------------------
Magnitude (a.u.)       :      0.21196
Magnitude (Debye)      :      0.53875

Rotational constants in cm-1:     0.002030     0.001357     0.000988
Rotational constants in MHz :    60.860913    40.693668    29.633436

                             ****ORCA TERMINATED NORMALLY****
TOTAL RUN TIME: 0 days 0 hours 4 minutes 37 seconds 444 msec
