                         Program Version 5.0.3 -  RELEASE  -
|  1> !R2SCAN def2-TZVP VERYSLOWCONV
|  2> !KDIIS
|  3> %scf
|  4>   AutoTRAHIter 200
|  5>   maxiter 400
|  6> end
|  7>
|  8> %pal nprocs 6 end
|  9>
| 10> *xyzfile 0 6 pbe.xyz
| 11>
| 12> $new_job
| 13>
| 14> !R2SCAN def2-TZVP VERYSLOWCONV
| 15> !KDIIS
| 16> %scf
| 17>   AutoTRAHIter 200
| 18>   maxiter 400
| 19> end
| 20>
| 21>
| 22> %pal nprocs 6 end
| 23>
| 24> *xyzfile 0 4 pbe.xyz
| 25>
| 26>
| 27>
| 28>
| 29>
| 30>                          ****END OF INPUT****
 Total Charge           Charge          ....    0
 Multiplicity           Mult            ....    6
 Number of Electrons    NEL             ....  215
FINAL SINGLE POINT ENERGY     -2509.449609500537

CARTESIAN COORDINATES (ANGSTROEM)
---------------------------------
  Au     7.632504    5.991607    5.833179
  Au     5.753582    4.082658    7.883688
  Au     7.905755    5.890448   10.772996
  Au     8.749385    4.593875    8.634896
  Au     7.908549    3.416436    6.263170
  Au     7.605926    8.236554    4.488624
  Au     5.062597    5.412661   10.055390
  Au     5.826350    7.266973   11.937912
  Au     6.209963    8.585347    9.586665
  Au     6.874283    8.619869    7.036091
  Mn     6.869316    6.394829    8.390372

 Multiplicity           Mult            ....    4
 Number of Electrons    NEL             ....  215
 Basis Dimension        Dim             ....  445

ORBITAL ENERGIES
----------------
                 SPIN UP ORBITALS
  NO   OCC          E(Eh)            E(eV)
   0   1.0000    -235.038660     -6395.7271
   1   1.0000     -27.220707      -740.7131
   2   1.0000     -23.269265      -633.1889
   3   1.0000     -23.266964      -633.1263
   4   1.0000     -23.266259      -633.1071
   5   1.0000      -4.124080      -112.2219
   6   1.0000      -4.118362      -112.0663
   7   1.0000      -4.117605      -112.0457
   8   1.0000      -4.117209      -112.0350
   9   1.0000      -4.116307      -112.0104
  10   1.0000      -4.116149      -112.0061
  11   1.0000      -4.115821      -111.9972
  12   1.0000      -4.115465      -111.9875
  13   1.0000      -4.114493      -111.9610
  14   1.0000      -4.092611      -111.3656
  15   1.0000      -3.241126       -88.1955
  16   1.0000      -2.313634       -62.9572
  17   1.0000      -2.311577       -62.9012
  18   1.0000      -2.311063       -62.8872
  19   1.0000      -2.309993       -62.8581
  20   1.0000      -2.309649       -62.8487
  21   1.0000      -2.308952       -62.8298
  22   1.0000      -2.308286       -62.8116
  23   1.0000      -2.306449       -62.7617
  24   1.0000      -2.305913       -62.7471
  25   1.0000      -2.305055       -62.7237
  26   1.0000      -2.304751       -62.7155
  27   1.0000      -2.304045       -62.6962
  28   1.0000      -2.304005       -62.6952
  29   1.0000      -2.303140       -62.6716
  30   1.0000      -2.302137       -62.6443
  31   1.0000      -2.302040       -62.6417
  32   1.0000      -2.301717       -62.6329
  33   1.0000      -2.301171       -62.6180
  34   1.0000      -2.300387       -62.5967
  35   1.0000      -2.299817       -62.5812
  36   1.0000      -2.296748       -62.4977
  37   1.0000      -2.295951       -62.4760
  38   1.0000      -2.295138       -62.4539
  39   1.0000      -2.295012       -62.4505
  40   1.0000      -2.294254       -62.4298
  41   1.0000      -2.293808       -62.4177
  42   1.0000      -2.292062       -62.3702
  43   1.0000      -2.283223       -62.1296
  44   1.0000      -2.278901       -62.0120
  45   1.0000      -2.271077       -61.7991
  46   1.0000      -2.101279       -57.1787
  47   1.0000      -2.095861       -57.0313
  48   1.0000      -2.095434       -57.0197
  49   1.0000      -0.410786       -11.1780
  50   1.0000      -0.387193       -10.5361
  51   1.0000      -0.383302       -10.4302
  52   1.0000      -0.379811       -10.3352
  53   1.0000      -0.377860       -10.2821
  54   1.0000      -0.372713       -10.1420
  55   1.0000      -0.369904       -10.0656
  56   1.0000      -0.357756        -9.7350
  57   1.0000      -0.353601        -9.6220
  58   1.0000      -0.347092        -9.4448
  59   1.0000      -0.345211        -9.3937
  60   1.0000      -0.342290        -9.3142
  61   1.0000      -0.339287        -9.2325
  62   1.0000      -0.338961        -9.2236
  63   1.0000      -0.332617        -9.0510
  64   1.0000      -0.331839        -9.0298
  65   1.0000      -0.327872        -8.9218
  66   1.0000      -0.327454        -8.9105
  67   1.0000      -0.326818        -8.8932
  68   1.0000      -0.319576        -8.6961
  69   1.0000      -0.314318        -8.5530
  70   1.0000      -0.313721        -8.5368
  71   1.0000      -0.311422        -8.4742
  72   1.0000      -0.307785        -8.3753
  73   1.0000      -0.306598        -8.3430
  74   1.0000      -0.305100        -8.3022
  75   1.0000      -0.301253        -8.1975
  76   1.0000      -0.298229        -8.1152
  77   1.0000      -0.296515        -8.0686
  78   1.0000      -0.293878        -7.9968
  79   1.0000      -0.292876        -7.9696
  80   1.0000      -0.289447        -7.8763
  81   1.0000      -0.286459        -7.7949
  82   1.0000      -0.285104        -7.7581
  83   1.0000      -0.283457        -7.7132
  84   1.0000      -0.281182        -7.6513
  85   1.0000      -0.280101        -7.6219
  86   1.0000      -0.278481        -7.5779
  87   1.0000      -0.275954        -7.5091
  88   1.0000      -0.275607        -7.4996
  89   1.0000      -0.273226        -7.4349
  90   1.0000      -0.273090        -7.4312
  91   1.0000      -0.269081        -7.3221
  92   1.0000      -0.267109        -7.2684
  93   1.0000      -0.266505        -7.2520
  94   1.0000      -0.265383        -7.2214
  95   1.0000      -0.262122        -7.1327
  96   1.0000      -0.260718        -7.0945
  97   1.0000      -0.259203        -7.0533
  98   1.0000      -0.257364        -7.0032
  99   1.0000      -0.256981        -6.9928
 100   1.0000      -0.254662        -6.9297
 101   1.0000      -0.252336        -6.8664
 102   1.0000      -0.250803        -6.8247
 103   1.0000      -0.249123        -6.7790
 104   1.0000      -0.243870        -6.6360
 105   1.0000      -0.242517        -6.5992
 106   1.0000      -0.239007        -6.5037
 107   1.0000      -0.216540        -5.8924
 108   1.0000      -0.213439        -5.8080
 109   0.0000      -0.211654        -5.7594
 110   0.0000      -0.143794        -3.9128
 111   0.0000      -0.142170        -3.8686
 112   0.0000      -0.126303        -3.4369
 113   0.0000      -0.121302        -3.3008

                 SPIN DOWN ORBITALS
  NO   OCC          E(Eh)            E(eV)
   0   1.0000    -235.037683     -6395.7005
   1   1.0000     -27.134034      -738.3546
   2   1.0000     -23.202246      -631.3652
   3   1.0000     -23.200730      -631.3240
   4   1.0000     -23.200062      -631.3058
   5   1.0000      -4.125093      -112.2495
   6   1.0000      -4.120555      -112.1260
   7   1.0000      -4.119356      -112.0934
   8   1.0000      -4.116473      -112.0149
   9   1.0000      -4.115290      -111.9827
  10   1.0000      -4.115270      -111.9822
  11   1.0000      -4.115167      -111.9794
  12   1.0000      -4.114450      -111.9599
  13   1.0000      -4.113151      -111.9245
  14   1.0000      -4.094452      -111.4157
  15   1.0000      -3.034244       -82.5660
  16   1.0000      -2.314419       -62.9785
  17   1.0000      -2.313612       -62.9566
  18   1.0000      -2.311253       -62.8924
  19   1.0000      -2.310491       -62.8717
  20   1.0000      -2.309383       -62.8415
  21   1.0000      -2.308359       -62.8136
  22   1.0000      -2.308270       -62.8112
  23   1.0000      -2.308183       -62.8089
  24   1.0000      -2.307182       -62.7816
  25   1.0000      -2.304238       -62.7015
  26   1.0000      -2.303267       -62.6751
  27   1.0000      -2.303133       -62.6714
  28   1.0000      -2.302852       -62.6638
  29   1.0000      -2.302552       -62.6556
  30   1.0000      -2.302057       -62.6421
  31   1.0000      -2.301269       -62.6207
  32   1.0000      -2.301080       -62.6156
  33   1.0000      -2.300775       -62.6073
  34   1.0000      -2.300185       -62.5912
  35   1.0000      -2.298998       -62.5589
  36   1.0000      -2.296733       -62.4973
  37   1.0000      -2.295719       -62.4697
  38   1.0000      -2.294299       -62.4310
  39   1.0000      -2.294267       -62.4302
  40   1.0000      -2.293315       -62.4043
  41   1.0000      -2.292510       -62.3824
  42   1.0000      -2.290717       -62.3336
  43   1.0000      -2.285886       -62.2021
  44   1.0000      -2.281242       -62.0757
  45   1.0000      -2.271995       -61.8241
  46   1.0000      -1.894779       -51.5596
  47   1.0000      -1.891335       -51.4658
  48   1.0000      -1.889734       -51.4223
  49   1.0000      -0.408561       -11.1175
  50   1.0000      -0.389874       -10.6090
  51   1.0000      -0.383947       -10.4477
  52   1.0000      -0.376807       -10.2534
  53   1.0000      -0.375230       -10.2105
  54   1.0000      -0.367122        -9.9899
  55   1.0000      -0.365808        -9.9541
  56   1.0000      -0.352881        -9.6024
  57   1.0000      -0.346555        -9.4302
  58   1.0000      -0.345375        -9.3981
  59   1.0000      -0.342484        -9.3195
  60   1.0000      -0.338696        -9.2164
  61   1.0000      -0.333603        -9.0778
  62   1.0000      -0.329644        -8.9701
  63   1.0000      -0.329066        -8.9543
  64   1.0000      -0.328379        -8.9357
  65   1.0000      -0.325679        -8.8622
  66   1.0000      -0.320061        -8.7093
  67   1.0000      -0.319706        -8.6996
  68   1.0000      -0.317305        -8.6343
  69   1.0000      -0.315065        -8.5734
  70   1.0000      -0.311568        -8.4782
  71   1.0000      -0.306808        -8.3487
  72   1.0000      -0.304223        -8.2783
  73   1.0000      -0.303480        -8.2581
  74   1.0000      -0.302394        -8.2286
  75   1.0000      -0.296895        -8.0789
  76   1.0000      -0.295915        -8.0522
  77   1.0000      -0.293528        -7.9873
  78   1.0000      -0.292630        -7.9629
  79   1.0000      -0.291617        -7.9353
  80   1.0000      -0.290857        -7.9146
  81   1.0000      -0.285872        -7.7790
  82   1.0000      -0.285533        -7.7698
  83   1.0000      -0.281995        -7.6735
  84   1.0000      -0.281901        -7.6709
  85   1.0000      -0.281143        -7.6503
  86   1.0000      -0.279601        -7.6083
  87   1.0000      -0.276568        -7.5258
  88   1.0000      -0.274712        -7.4753
  89   1.0000      -0.272829        -7.4241
  90   1.0000      -0.272691        -7.4203
  91   1.0000      -0.268246        -7.2994
  92   1.0000      -0.266331        -7.2472
  93   1.0000      -0.264482        -7.1969
  94   1.0000      -0.262043        -7.1306
  95   1.0000      -0.259159        -7.0521
  96   1.0000      -0.258396        -7.0313
  97   1.0000      -0.255166        -6.9434
  98   1.0000      -0.253815        -6.9067
  99   1.0000      -0.252265        -6.8645
 100   1.0000      -0.248686        -6.7671
 101   1.0000      -0.246854        -6.7172
 102   1.0000      -0.229656        -6.2493
 103   1.0000      -0.227621        -6.1939
 104   1.0000      -0.227264        -6.1842
 105   1.0000      -0.160409        -4.3649
 106   0.0000      -0.155893        -4.2421
 107   0.0000      -0.138952        -3.7811
 108   0.0000      -0.130596        -3.5537
 109   0.0000      -0.113586        -3.0908
 110   0.0000      -0.112398        -3.0585

MULLIKEN ATOMIC CHARGES AND SPIN POPULATIONS
--------------------------------------------
   0 Au:   -0.409394   -0.193309
   1 Au:    0.121298   -0.090903
   2 Au:    0.071497    0.020005
   3 Au:    0.165003    0.026987
   4 Au:    0.376776   -0.398707
   5 Au:    0.279010   -0.234440
   6 Au:    0.073042    0.013367
   7 Au:    0.328448   -0.356303
   8 Au:    0.046637    0.055158
   9 Au:    0.085157   -0.048338
  10 Mn:   -1.137475    4.206483
Sum of atomic charges         :   -0.0000000

LOEWDIN ATOMIC CHARGES AND SPIN POPULATIONS
-------------------------------------------
   0 Au:   -0.062953   -0.168834
   1 Au:    0.018656   -0.104836
   2 Au:    0.009038   -0.022036
   3 Au:    0.040108   -0.045969
   4 Au:    0.074038   -0.332849
   5 Au:    0.037022   -0.202407
   6 Au:    0.018008   -0.033857
   7 Au:    0.091842   -0.235515
   8 Au:    0.033247   -0.021892
   9 Au:   -0.015592   -0.039802
  10 Mn:   -0.243414    4.207997

  Mayer bond orders larger than 0.100000
B(  0-Au,  4-Au) :   0.3152 B(  0-Au,  5-Au) :   0.5635 B(  0-Au,  9-Au) :   0.1977
B(  0-Au, 10-Mn) :   0.6378 B(  1-Au,  4-Au) :   0.3389 B(  1-Au,  6-Au) :   0.4497
B(  1-Au, 10-Mn) :   0.5230 B(  2-Au,  3-Au) :   0.5248 B(  2-Au,  6-Au) :   0.1176
B(  2-Au,  7-Au) :   0.3211 B(  2-Au, 10-Mn) :   0.4796 B(  3-Au,  4-Au) :   0.2483
B(  3-Au, 10-Mn) :   0.5415 B(  5-Au,  8-Au) :   0.1091 B(  5-Au,  9-Au) :   0.4437
B(  6-Au,  7-Au) :   0.2868 B(  6-Au, 10-Mn) :   0.5659 B(  7-Au,  8-Au) :   0.2563
B(  8-Au,  9-Au) :   0.5119 B(  8-Au, 10-Mn) :   0.6522 B(  9-Au, 10-Mn) :   0.4843

FINAL SINGLE POINT ENERGY     -2509.393883385865

DIPOLE MOMENT
-------------
                                X             Y             Z
Electronic contribution:      2.97978      -6.95836      -4.61238
Nuclear contribution   :     -3.02685       6.70707       5.11077
                        -----------------------------------------
Total Dipole Moment    :     -0.04708      -0.25129       0.49840
                        -----------------------------------------
Magnitude (a.u.)       :      0.56014
Magnitude (Debye)      :      1.42377

Rotational constants in cm-1:     0.002030     0.001357     0.000988
Rotational constants in MHz :    60.860913    40.693668    29.633436

                             ****ORCA TERMINATED NORMALLY****
TOTAL RUN TIME: 0 days 0 hours 7 minutes 49 seconds 8 msec
