                         Program Version 5.0.3 -  RELEASE  -
|  1> !PBE def2-TZVP VERYSLOWCONV
|  2>
|  3> %pal nprocs 16 end
|  4>
|  5> *xyzfile 0 5 pbe.xyz
|  6>
|  7> $new_job
|  8>
|  9> !PBE def2-TZVP VERYSLOWCONV
| 10>
| 11>
| 12> %pal nprocs 16 end
| 13>
| 14> *xyzfile 0 3 pbe.xyz
| 15>
| 16>
| 17>
| 18>
| 19>
| 20>                          ****END OF INPUT****
 Total Charge           Charge          ....    0
 Multiplicity           Mult            ....    5
 Number of Electrons    NEL             ....  292
FINAL SINGLE POINT ENERGY     -3165.078829638301

CARTESIAN COORDINATES (ANGSTROEM)
---------------------------------
  Au     5.363638    7.787579    7.358004
  Au     9.435636    7.204740    9.722100
  Au     9.969017    9.549850    8.399644
  Au     6.752671    6.366778    9.443693
  Au     7.920673   11.415708    8.522004
  Au     5.325143   10.289193    8.469801
  Au     7.372687    9.012968    9.801413
  Au    10.814738    7.205170    7.259268
  Au     9.523106   11.157768    6.205496
  Au     6.993696    9.883674    6.218313
  Au     9.090036    5.863297    5.584176
  Au     6.816282    7.435537    4.943594
  Au     9.385445    8.619782    5.194517
  Au     6.685882    5.364454    6.880328
  Fe     8.096661    7.693351    7.422886

 Multiplicity           Mult            ....    3
 Number of Electrons    NEL             ....  292
 Basis Dimension        Dim             ....  605

ORBITAL ENERGIES
----------------
                 SPIN UP ORBITALS
  NO   OCC          E(Eh)            E(eV)
   0   1.0000    -254.750700     -6932.1190
   1   1.0000     -29.585156      -805.0530
   2   1.0000     -25.529394      -694.6901
   3   1.0000     -25.522678      -694.5074
   4   1.0000     -25.510408      -694.1735
   5   1.0000      -4.034702      -109.7898
   6   1.0000      -4.034614      -109.7874
   7   1.0000      -4.034228      -109.7769
   8   1.0000      -4.034042      -109.7719
   9   1.0000      -4.033933      -109.7689
  10   1.0000      -4.030053      -109.6633
  11   1.0000      -4.026740      -109.5732
  12   1.0000      -4.026049      -109.5544
  13   1.0000      -4.026021      -109.5536
  14   1.0000      -4.023460      -109.4839
  15   1.0000      -4.023312      -109.4799
  16   1.0000      -4.020800      -109.4115
  17   1.0000      -4.020706      -109.4090
  18   1.0000      -4.017231      -109.3144
  19   1.0000      -3.363431       -91.5236
  20   1.0000      -2.251307       -61.2612
  21   1.0000      -2.250783       -61.2469
  22   1.0000      -2.250488       -61.2389
  23   1.0000      -2.250423       -61.2371
  24   1.0000      -2.249685       -61.2171
  25   1.0000      -2.249500       -61.2120
  26   1.0000      -2.247808       -61.1660
  27   1.0000      -2.247277       -61.1515
  28   1.0000      -2.246803       -61.1386
  29   1.0000      -2.245231       -61.0959
  30   1.0000      -2.245030       -61.0904
  31   1.0000      -2.245006       -61.0897
  32   1.0000      -2.244787       -61.0838
  33   1.0000      -2.244669       -61.0805
  34   1.0000      -2.244640       -61.0798
  35   1.0000      -2.243885       -61.0592
  36   1.0000      -2.243790       -61.0566
  37   1.0000      -2.241286       -60.9885
  38   1.0000      -2.241173       -60.9854
  39   1.0000      -2.240750       -60.9739
  40   1.0000      -2.240378       -60.9638
  41   1.0000      -2.239637       -60.9436
  42   1.0000      -2.239634       -60.9435
  43   1.0000      -2.239163       -60.9307
  44   1.0000      -2.238847       -60.9221
  45   1.0000      -2.237675       -60.8902
  46   1.0000      -2.237077       -60.8740
  47   1.0000      -2.237012       -60.8722
  48   1.0000      -2.235547       -60.8323
  49   1.0000      -2.235515       -60.8315
  50   1.0000      -2.235125       -60.8208
  51   1.0000      -2.235023       -60.8181
  52   1.0000      -2.234367       -60.8002
  53   1.0000      -2.234149       -60.7943
  54   1.0000      -2.234052       -60.7916
  55   1.0000      -2.233768       -60.7839
  56   1.0000      -2.233346       -60.7724
  57   1.0000      -2.232428       -60.7475
  58   1.0000      -2.232006       -60.7360
  59   1.0000      -2.231307       -60.7170
  60   1.0000      -2.229540       -60.6689
  61   1.0000      -2.227430       -60.6114
  62   1.0000      -2.194697       -59.7208
  63   1.0000      -2.181780       -59.3692
  64   1.0000      -2.155568       -58.6560
  65   1.0000      -0.435712       -11.8563
  66   1.0000      -0.393233       -10.7004
  67   1.0000      -0.387495       -10.5443
  68   1.0000      -0.386764       -10.5244
  69   1.0000      -0.382300       -10.4029
  70   1.0000      -0.376074       -10.2335
  71   1.0000      -0.369378       -10.0513
  72   1.0000      -0.367958       -10.0126
  73   1.0000      -0.363444        -9.8898
  74   1.0000      -0.361738        -9.8434
  75   1.0000      -0.358804        -9.7636
  76   1.0000      -0.354925        -9.6580
  77   1.0000      -0.354431        -9.6446
  78   1.0000      -0.352792        -9.5999
  79   1.0000      -0.349684        -9.5154
  80   1.0000      -0.349267        -9.5040
  81   1.0000      -0.346140        -9.4189
  82   1.0000      -0.345070        -9.3898
  83   1.0000      -0.341529        -9.2935
  84   1.0000      -0.336686        -9.1617
  85   1.0000      -0.336549        -9.1580
  86   1.0000      -0.335825        -9.1383
  87   1.0000      -0.330824        -9.0022
  88   1.0000      -0.327854        -8.9214
  89   1.0000      -0.327726        -8.9179
  90   1.0000      -0.327029        -8.8989
  91   1.0000      -0.323759        -8.8099
  92   1.0000      -0.318611        -8.6698
  93   1.0000      -0.318433        -8.6650
  94   1.0000      -0.315576        -8.5873
  95   1.0000      -0.313918        -8.5421
  96   1.0000      -0.308666        -8.3992
  97   1.0000      -0.308283        -8.3888
  98   1.0000      -0.306952        -8.3526
  99   1.0000      -0.304952        -8.2982
 100   1.0000      -0.304808        -8.2942
 101   1.0000      -0.297017        -8.0822
 102   1.0000      -0.295880        -8.0513
 103   1.0000      -0.293459        -7.9854
 104   1.0000      -0.289946        -7.8898
 105   1.0000      -0.288357        -7.8466
 106   1.0000      -0.286646        -7.8000
 107   1.0000      -0.285090        -7.7577
 108   1.0000      -0.282509        -7.6875
 109   1.0000      -0.281207        -7.6520
 110   1.0000      -0.279283        -7.5997
 111   1.0000      -0.277995        -7.5646
 112   1.0000      -0.276682        -7.5289
 113   1.0000      -0.273807        -7.4507
 114   1.0000      -0.272869        -7.4251
 115   1.0000      -0.271600        -7.3906
 116   1.0000      -0.271383        -7.3847
 117   1.0000      -0.270963        -7.3733
 118   1.0000      -0.269126        -7.3233
 119   1.0000      -0.268858        -7.3160
 120   1.0000      -0.267146        -7.2694
 121   1.0000      -0.266167        -7.2428
 122   1.0000      -0.263499        -7.1702
 123   1.0000      -0.260149        -7.0790
 124   1.0000      -0.259566        -7.0632
 125   1.0000      -0.257760        -7.0140
 126   1.0000      -0.256507        -6.9799
 127   1.0000      -0.255369        -6.9489
 128   1.0000      -0.253745        -6.9047
 129   1.0000      -0.253657        -6.9024
 130   1.0000      -0.251398        -6.8409
 131   1.0000      -0.251370        -6.8401
 132   1.0000      -0.250725        -6.8226
 133   1.0000      -0.249313        -6.7841
 134   1.0000      -0.248251        -6.7553
 135   1.0000      -0.247784        -6.7425
 136   1.0000      -0.246126        -6.6974
 137   1.0000      -0.244726        -6.6593
 138   1.0000      -0.242146        -6.5891
 139   1.0000      -0.242006        -6.5853
 140   1.0000      -0.240309        -6.5391
 141   1.0000      -0.240223        -6.5368
 142   1.0000      -0.229929        -6.2567
 143   1.0000      -0.228850        -6.2273
 144   1.0000      -0.215445        -5.8626
 145   1.0000      -0.203844        -5.5469
 146   1.0000      -0.195664        -5.3243
 147   0.0000      -0.194359        -5.2888
 148   0.0000      -0.169972        -4.6252
 149   0.0000      -0.146921        -3.9979
 150   0.0000      -0.133574        -3.6347
 151   0.0000      -0.130095        -3.5401

                 SPIN DOWN ORBITALS
  NO   OCC          E(Eh)            E(eV)
   0   1.0000    -254.750070     -6932.1018
   1   1.0000     -29.528996      -803.5248
   2   1.0000     -25.483566      -693.4431
   3   1.0000     -25.479633      -693.3361
   4   1.0000     -25.472110      -693.1313
   5   1.0000      -4.034650      -109.7884
   6   1.0000      -4.034526      -109.7850
   7   1.0000      -4.034462      -109.7833
   8   1.0000      -4.034384      -109.7812
   9   1.0000      -4.034315      -109.7793
  10   1.0000      -4.030263      -109.6690
  11   1.0000      -4.026808      -109.5750
  12   1.0000      -4.026002      -109.5531
  13   1.0000      -4.025975      -109.5523
  14   1.0000      -4.023612      -109.4880
  15   1.0000      -4.023462      -109.4840
  16   1.0000      -4.021975      -109.4435
  17   1.0000      -4.021874      -109.4408
  18   1.0000      -4.017807      -109.3301
  19   1.0000      -3.235720       -88.0484
  20   1.0000      -2.252228       -61.2862
  21   1.0000      -2.251760       -61.2735
  22   1.0000      -2.250074       -61.2276
  23   1.0000      -2.250010       -61.2259
  24   1.0000      -2.249737       -61.2185
  25   1.0000      -2.249231       -61.2047
  26   1.0000      -2.247565       -61.1593
  27   1.0000      -2.247344       -61.1533
  28   1.0000      -2.246900       -61.1413
  29   1.0000      -2.245983       -61.1163
  30   1.0000      -2.245155       -61.0938
  31   1.0000      -2.245091       -61.0920
  32   1.0000      -2.245002       -61.0896
  33   1.0000      -2.244828       -61.0849
  34   1.0000      -2.244742       -61.0825
  35   1.0000      -2.244203       -61.0679
  36   1.0000      -2.244064       -61.0641
  37   1.0000      -2.241141       -60.9845
  38   1.0000      -2.240923       -60.9786
  39   1.0000      -2.240591       -60.9696
  40   1.0000      -2.240331       -60.9625
  41   1.0000      -2.239651       -60.9440
  42   1.0000      -2.239595       -60.9425
  43   1.0000      -2.239263       -60.9334
  44   1.0000      -2.239083       -60.9285
  45   1.0000      -2.237872       -60.8956
  46   1.0000      -2.237164       -60.8763
  47   1.0000      -2.236796       -60.8663
  48   1.0000      -2.236089       -60.8471
  49   1.0000      -2.235685       -60.8361
  50   1.0000      -2.235650       -60.8351
  51   1.0000      -2.235591       -60.8335
  52   1.0000      -2.235217       -60.8234
  53   1.0000      -2.235100       -60.8202
  54   1.0000      -2.235084       -60.8197
  55   1.0000      -2.234146       -60.7942
  56   1.0000      -2.233768       -60.7839
  57   1.0000      -2.233598       -60.7793
  58   1.0000      -2.233452       -60.7753
  59   1.0000      -2.231869       -60.7323
  60   1.0000      -2.230261       -60.6885
  61   1.0000      -2.228420       -60.6384
  62   1.0000      -2.059921       -56.0533
  63   1.0000      -2.055472       -55.9322
  64   1.0000      -2.041505       -55.5522
  65   1.0000      -0.432737       -11.7754
  66   1.0000      -0.394112       -10.7243
  67   1.0000      -0.388370       -10.5681
  68   1.0000      -0.386235       -10.5100
  69   1.0000      -0.377637       -10.2760
  70   1.0000      -0.371362       -10.1053
  71   1.0000      -0.366648        -9.9770
  72   1.0000      -0.363766        -9.8986
  73   1.0000      -0.362543        -9.8653
  74   1.0000      -0.361251        -9.8301
  75   1.0000      -0.358446        -9.7538
  76   1.0000      -0.354199        -9.6382
  77   1.0000      -0.353715        -9.6251
  78   1.0000      -0.353075        -9.6077
  79   1.0000      -0.350774        -9.5450
  80   1.0000      -0.349439        -9.5087
  81   1.0000      -0.346049        -9.4165
  82   1.0000      -0.344654        -9.3785
  83   1.0000      -0.341510        -9.2930
  84   1.0000      -0.338167        -9.2020
  85   1.0000      -0.336624        -9.1600
  86   1.0000      -0.335347        -9.1253
  87   1.0000      -0.330711        -8.9991
  88   1.0000      -0.328304        -8.9336
  89   1.0000      -0.327889        -8.9223
  90   1.0000      -0.327527        -8.9125
  91   1.0000      -0.321347        -8.7443
  92   1.0000      -0.319651        -8.6981
  93   1.0000      -0.318958        -8.6793
  94   1.0000      -0.313617        -8.5339
  95   1.0000      -0.310988        -8.4624
  96   1.0000      -0.307640        -8.3713
  97   1.0000      -0.306177        -8.3315
  98   1.0000      -0.303885        -8.2691
  99   1.0000      -0.299122        -8.1395
 100   1.0000      -0.298034        -8.1099
 101   1.0000      -0.296642        -8.0721
 102   1.0000      -0.294652        -8.0179
 103   1.0000      -0.289011        -7.8644
 104   1.0000      -0.288153        -7.8410
 105   1.0000      -0.285752        -7.7757
 106   1.0000      -0.285629        -7.7724
 107   1.0000      -0.284397        -7.7388
 108   1.0000      -0.281576        -7.6621
 109   1.0000      -0.280650        -7.6369
 110   1.0000      -0.278368        -7.5748
 111   1.0000      -0.277964        -7.5638
 112   1.0000      -0.277476        -7.5505
 113   1.0000      -0.274082        -7.4581
 114   1.0000      -0.273057        -7.4303
 115   1.0000      -0.271471        -7.3871
 116   1.0000      -0.271007        -7.3745
 117   1.0000      -0.270428        -7.3587
 118   1.0000      -0.269813        -7.3420
 119   1.0000      -0.267779        -7.2866
 120   1.0000      -0.267266        -7.2727
 121   1.0000      -0.264150        -7.1879
 122   1.0000      -0.264050        -7.1852
 123   1.0000      -0.261055        -7.1037
 124   1.0000      -0.260644        -7.0925
 125   1.0000      -0.257432        -7.0051
 126   1.0000      -0.256807        -6.9881
 127   1.0000      -0.255696        -6.9579
 128   1.0000      -0.254457        -6.9241
 129   1.0000      -0.253078        -6.8866
 130   1.0000      -0.250273        -6.8103
 131   1.0000      -0.249610        -6.7922
 132   1.0000      -0.248161        -6.7528
 133   1.0000      -0.247264        -6.7284
 134   1.0000      -0.244025        -6.6403
 135   1.0000      -0.243145        -6.6163
 136   1.0000      -0.242575        -6.6008
 137   1.0000      -0.241410        -6.5691
 138   1.0000      -0.231119        -6.2891
 139   1.0000      -0.221517        -6.0278
 140   1.0000      -0.212883        -5.7928
 141   1.0000      -0.210925        -5.7396
 142   1.0000      -0.206860        -5.6289
 143   1.0000      -0.185397        -5.0449
 144   1.0000      -0.169451        -4.6110
 145   0.0000      -0.159749        -4.3470
 146   0.0000      -0.158726        -4.3191
 147   0.0000      -0.152732        -4.1560
 148   0.0000      -0.144946        -3.9442
 149   0.0000      -0.140828        -3.8321

MULLIKEN ATOMIC CHARGES AND SPIN POPULATIONS
--------------------------------------------
   0 Au:    0.089771   -0.083929
   1 Au:    0.344770   -0.090630
   2 Au:   -0.131978   -0.149909
   3 Au:    0.300458   -0.050757
   4 Au:    0.213913   -0.055158
   5 Au:    0.332099   -0.046261
   6 Au:   -0.129870   -0.152393
   7 Au:    0.302681   -0.053323
   8 Au:    0.332815   -0.047134
   9 Au:   -0.279801   -0.100013
  10 Au:    0.328576   -0.026291
  11 Au:    0.235455    0.028741
  12 Au:    0.087140   -0.084020
  13 Au:    0.329325   -0.028786
  14 Fe:   -2.355354    2.939863
Sum of atomic charges         :   -0.0000000

LOEWDIN ATOMIC CHARGES AND SPIN POPULATIONS
-------------------------------------------
   0 Au:    0.016591   -0.038879
   1 Au:    0.110575   -0.135564
   2 Au:   -0.021433   -0.090956
   3 Au:    0.084796   -0.081292
   4 Au:   -0.014138   -0.079248
   5 Au:    0.086753   -0.085965
   6 Au:   -0.021177   -0.091159
   7 Au:    0.084820   -0.081546
   8 Au:    0.087032   -0.086735
   9 Au:   -0.037424   -0.083714
  10 Au:    0.060987   -0.047134
  11 Au:    0.066590   -0.022744
  12 Au:    0.016101   -0.039063
  13 Au:    0.060932   -0.047948
  14 Fe:   -0.581005    3.011948

  Mayer bond orders larger than 0.100000
B(  0-Au,  3-Au) :   0.1902 B(  0-Au,  5-Au) :   0.3416 B(  0-Au,  6-Au) :   0.1362
B(  0-Au,  9-Au) :   0.1864 B(  0-Au, 11-Au) :   0.1563 B(  0-Au, 13-Au) :   0.2113
B(  0-Au, 14-Fe) :   0.4772 B(  1-Au,  2-Au) :   0.2598 B(  1-Au,  3-Au) :   0.1426
B(  1-Au,  6-Au) :   0.2579 B(  1-Au,  7-Au) :   0.1440 B(  1-Au, 14-Fe) :   0.4635
B(  2-Au,  4-Au) :   0.2873 B(  2-Au,  6-Au) :   0.2201 B(  2-Au,  7-Au) :   0.1907
B(  2-Au,  8-Au) :   0.2764 B(  2-Au, 12-Au) :   0.1365 B(  2-Au, 14-Fe) :   0.4704
B(  3-Au,  6-Au) :   0.1904 B(  3-Au, 13-Au) :   0.2559 B(  3-Au, 14-Fe) :   0.4547
B(  4-Au,  5-Au) :   0.2483 B(  4-Au,  6-Au) :   0.2858 B(  4-Au,  8-Au) :   0.2487
B(  4-Au,  9-Au) :   0.2179 B(  5-Au,  6-Au) :   0.2778 B(  5-Au,  9-Au) :   0.2968
B(  5-Au, 14-Fe) :   0.1022 B(  6-Au, 14-Fe) :   0.4683 B(  7-Au, 10-Au) :   0.2559
B(  7-Au, 12-Au) :   0.1902 B(  7-Au, 14-Fe) :   0.4534 B(  8-Au,  9-Au) :   0.2965
B(  8-Au, 12-Au) :   0.3436 B(  8-Au, 14-Fe) :   0.1020 B(  9-Au, 11-Au) :   0.2957
B(  9-Au, 12-Au) :   0.1848 B(  9-Au, 14-Fe) :   0.4270 B( 10-Au, 11-Au) :   0.1607
B( 10-Au, 12-Au) :   0.2137 B( 10-Au, 13-Au) :   0.2596 B( 10-Au, 14-Fe) :   0.3731
B( 11-Au, 12-Au) :   0.1547 B( 11-Au, 13-Au) :   0.1610 B( 11-Au, 14-Fe) :   0.4676
B( 12-Au, 14-Fe) :   0.4763 B( 13-Au, 14-Fe) :   0.3725

FINAL SINGLE POINT ENERGY     -3165.054435122991

DIPOLE MOMENT
-------------
                                X             Y             Z
Electronic contribution:     -5.18462      25.73566       0.22933
Nuclear contribution   :      5.19396     -25.76953      -0.22345
                        -----------------------------------------
Total Dipole Moment    :      0.00934      -0.03387       0.00588
                        -----------------------------------------
Magnitude (a.u.)       :      0.03563
Magnitude (Debye)      :      0.09055

Rotational constants in cm-1:     0.001155     0.001045     0.000935
Rotational constants in MHz :    34.613255    31.321433    28.035191

                             ****ORCA TERMINATED NORMALLY****
TOTAL RUN TIME: 0 days 0 hours 8 minutes 43 seconds 992 msec
