                         Program Version 5.0.3 -  RELEASE  -
|  1> !CASSCF def2-TZVP def2-TZVP/C
|  2> !MOREAD RIJCOSX
|  3> %maxcore 6000
|  4> %moinp "pbe.qro"
|  5> %pal nprocs 2 end
|  6>
|  7> %casscf
|  8>  mult 5,3
|  9>  bweight 1,1
| 10>  nroots 5,45
| 11>  nel 6
| 12>  norb 5
| 13> end
| 14>
| 15>
| 16> *xyzfile 0 5 pbe.xyz
| 17>
| 18>
| 19>                          ****END OF INPUT****

CARTESIAN COORDINATES (ANGSTROEM)
---------------------------------
  Au     7.080532    5.283059    7.320395
  Au     8.783703    6.165548    5.404195
  Au     7.157217    8.403894    4.721445
  Au     8.841413   10.444020    6.146051
  Au     9.926650    8.501200    4.507662
  Au     9.653123    6.010096    8.097135
  Au    10.588475    8.531537    7.279928
  Au     6.329151    8.505825    9.394353
  Au     8.010635   10.571223    8.752826
  Au     5.324738    7.392601    6.534137
  Au     7.601467    6.040208   10.032880
  Au     5.000152    6.115183    8.957864
  Au     9.234053    8.259889    9.705848
  Au     6.144287   10.012649    6.749460
  Fe     7.940904    8.005388    7.291902

 Total Charge           Charge          ....    0
 Multiplicity           Mult            ....    5
 Number of Electrons    NEL             ....  292
 Basis Dimension        Dim             ....  605

ORBITAL ENERGIES
----------------

  NO   OCC          E(Eh)            E(eV)
   0   2.0000    -261.405881     -7113.2156
   1   2.0000     -31.965988      -869.8387
   2   2.0000     -27.446351      -746.8532
   3   2.0000     -27.446126      -746.8471
   4   2.0000     -27.445968      -746.8428
   5   2.0000      -4.725456      -128.5862
   6   2.0000      -4.724365      -128.5565
   7   2.0000      -4.723504      -128.5331
   8   2.0000      -4.722739      -128.5123
   9   2.0000      -4.719039      -128.4116
  10   2.0000      -4.718762      -128.4041
  11   2.0000      -4.717450      -128.3683
  12   2.0000      -4.715974      -128.3282
  13   2.0000      -4.713648      -128.2649
  14   2.0000      -4.713260      -128.2543
  15   2.0000      -4.712100      -128.2227
  16   2.0000      -4.709889      -128.1626
  17   2.0000      -4.708368      -128.1212
  18   2.0000      -4.697408      -127.8230
  19   2.0000      -4.199740      -114.2807
  20   2.0000      -2.779563       -75.6358
  21   2.0000      -2.779210       -75.6262
  22   2.0000      -2.778522       -75.6074
  23   2.0000      -2.765114       -75.2426
  24   2.0000      -2.763693       -75.2039
  25   2.0000      -2.763128       -75.1885
  26   2.0000      -2.762982       -75.1846
  27   2.0000      -2.761376       -75.1409
  28   2.0000      -2.761063       -75.1324
  29   2.0000      -2.760411       -75.1146
  30   2.0000      -2.760205       -75.1090
  31   2.0000      -2.759479       -75.0892
  32   2.0000      -2.758552       -75.0640
  33   2.0000      -2.757753       -75.0423
  34   2.0000      -2.757397       -75.0326
  35   2.0000      -2.756808       -75.0166
  36   2.0000      -2.755998       -74.9945
  37   2.0000      -2.755664       -74.9854
  38   2.0000      -2.755455       -74.9798
  39   2.0000      -2.753939       -74.9385
  40   2.0000      -2.753201       -74.9184
  41   2.0000      -2.752870       -74.9094
  42   2.0000      -2.752276       -74.8932
  43   2.0000      -2.751703       -74.8776
  44   2.0000      -2.751199       -74.8639
  45   2.0000      -2.750476       -74.8443
  46   2.0000      -2.750207       -74.8369
  47   2.0000      -2.749832       -74.8267
  48   2.0000      -2.749480       -74.8171
  49   2.0000      -2.749114       -74.8072
  50   2.0000      -2.748953       -74.8028
  51   2.0000      -2.747651       -74.7674
  52   2.0000      -2.746644       -74.7400
  53   2.0000      -2.746490       -74.7358
  54   2.0000      -2.746256       -74.7294
  55   2.0000      -2.746122       -74.7258
  56   2.0000      -2.745932       -74.7206
  57   2.0000      -2.745260       -74.7023
  58   2.0000      -2.743237       -74.6473
  59   2.0000      -2.742289       -74.6215
  60   2.0000      -2.741975       -74.6129
  61   2.0000      -2.741194       -74.5917
  62   2.0000      -2.733547       -74.3836
  63   2.0000      -2.732647       -74.3591
  64   2.0000      -2.731738       -74.3344
  65   2.0000      -0.592865       -16.1327
  66   2.0000      -0.561161       -15.2700
  67   2.0000      -0.560688       -15.2571
  68   2.0000      -0.555856       -15.1256
  69   2.0000      -0.554517       -15.0892
  70   2.0000      -0.553506       -15.0617
  71   2.0000      -0.550963       -14.9925
  72   2.0000      -0.549549       -14.9540
  73   2.0000      -0.548625       -14.9288
  74   2.0000      -0.546953       -14.8834
  75   2.0000      -0.545280       -14.8378
  76   2.0000      -0.544546       -14.8179
  77   2.0000      -0.542072       -14.7505
  78   2.0000      -0.541899       -14.7458
  79   2.0000      -0.538834       -14.6624
  80   2.0000      -0.537388       -14.6231
  81   2.0000      -0.535803       -14.5799
  82   2.0000      -0.533467       -14.5164
  83   2.0000      -0.532002       -14.4765
  84   2.0000      -0.528021       -14.3682
  85   2.0000      -0.526343       -14.3225
  86   2.0000      -0.521590       -14.1932
  87   2.0000      -0.519508       -14.1365
  88   2.0000      -0.516732       -14.0610
  89   2.0000      -0.514857       -14.0100
  90   2.0000      -0.512087       -13.9346
  91   2.0000      -0.508801       -13.8452
  92   2.0000      -0.505350       -13.7513
  93   2.0000      -0.503445       -13.6994
  94   2.0000      -0.499077       -13.5806
  95   2.0000      -0.496240       -13.5034
  96   2.0000      -0.494371       -13.4525
  97   2.0000      -0.493499       -13.4288
  98   2.0000      -0.490941       -13.3592
  99   2.0000      -0.485089       -13.1999
 100   2.0000      -0.479490       -13.0476
 101   2.0000      -0.478792       -13.0286
 102   2.0000      -0.472763       -12.8645
 103   2.0000      -0.470601       -12.8057
 104   2.0000      -0.467612       -12.7244
 105   2.0000      -0.465382       -12.6637
 106   2.0000      -0.464287       -12.6339
 107   2.0000      -0.461843       -12.5674
 108   2.0000      -0.459488       -12.5033
 109   2.0000      -0.458617       -12.4796
 110   2.0000      -0.456198       -12.4138
 111   2.0000      -0.454700       -12.3730
 112   2.0000      -0.453580       -12.3425
 113   2.0000      -0.449629       -12.2350
 114   2.0000      -0.448851       -12.2138
 115   2.0000      -0.447498       -12.1770
 116   2.0000      -0.444326       -12.0907
 117   2.0000      -0.442996       -12.0545
 118   2.0000      -0.441235       -12.0066
 119   2.0000      -0.439736       -11.9658
 120   2.0000      -0.436021       -11.8647
 121   2.0000      -0.434245       -11.8164
 122   2.0000      -0.433445       -11.7946
 123   2.0000      -0.430391       -11.7115
 124   2.0000      -0.429149       -11.6777
 125   2.0000      -0.428064       -11.6482
 126   2.0000      -0.426558       -11.6072
 127   2.0000      -0.425813       -11.5870
 128   2.0000      -0.424006       -11.5378
 129   2.0000      -0.416711       -11.3393
 130   2.0000      -0.414467       -11.2782
 131   2.0000      -0.414105       -11.2684
 132   2.0000      -0.412740       -11.2312
 133   2.0000      -0.408886       -11.1264
 134   2.0000      -0.399555       -10.8725
 135   2.0000      -0.389491       -10.5986
 136   2.0000      -0.378109       -10.2889
 137   2.0000      -0.352793        -9.6000
 138   2.0000      -0.350028        -9.5247
 139   2.0000      -0.262377        -7.1396
 140   2.0000      -0.244157        -6.6439
 141   2.0000      -0.234929        -6.3927
 142   2.0000      -0.224367        -6.1053
 143   1.2000      -0.282940        -7.6992
 144   1.2000      -0.270575        -7.3627
 145   1.2000      -0.274108        -7.4589
 146   1.2000      -0.279366        -7.6019
 147   1.2000      -0.274792        -7.4775
 148   0.0000      -0.051187        -1.3929
 149   0.0000      -0.025616        -0.6971
 150   0.0000      -0.010933        -0.2975
 151   0.0000       0.001184         0.0322
 152   0.0000       0.009509         0.2587

MULLIKEN ATOMIC CHARGES AND SPIN DENSITIES
------------------------------------------
   0 Au:    0.047686    0.006811
   1 Au:    0.052828    0.008060
   2 Au:    0.185782    0.007310
   3 Au:    0.042147    0.006627
   4 Au:    0.294779    0.003654
   5 Au:    0.342781    0.005949
   6 Au:    0.041909    0.009114
   7 Au:   -0.130317    0.009380
   8 Au:    0.305589    0.005779
   9 Au:   -0.032503    0.008041
  10 Au:    0.060210    0.004773
  11 Au:    0.340374    0.003865
  12 Au:    0.270546    0.006653
  13 Au:    0.362307    0.005717
  14 Fe:   -2.184119    2.908269
Sum of atomic charges       :    0.0000000

LOEWDIN ATOMIC CHARGES AND SPIN DENSITIES
-----------------------------------------
   0 Au:   -0.043061    0.009010
   1 Au:    0.018999    0.010032
   2 Au:   -0.011865    0.009696
   3 Au:   -0.046607    0.008474
   4 Au:    0.083157    0.004420
   5 Au:    0.025159    0.008541
   6 Au:    0.032022    0.010382
   7 Au:   -0.025629    0.011188
   8 Au:    0.068097    0.007540
   9 Au:    0.018244    0.009613
  10 Au:   -0.036339    0.005778
  11 Au:    0.108499    0.004444
  12 Au:    0.019421    0.008787
  13 Au:    0.047227    0.008066
  14 Fe:   -0.257325    2.884029

  Mayer bond orders larger than 0.100000
B(  0-Au,  1-Au) :   0.3028 B(  0-Au,  5-Au) :   0.2262 B(  0-Au,  9-Au) :   0.1419
B(  0-Au, 10-Au) :   0.2009 B(  0-Au, 11-Au) :   0.2482 B(  0-Au, 14-Fe) :   0.3273
B(  1-Au,  2-Au) :   0.1683 B(  1-Au,  4-Au) :   0.2719 B(  1-Au, 14-Fe) :   0.4478
B(  2-Au,  3-Au) :   0.1145 B(  2-Au,  4-Au) :   0.2788 B(  2-Au,  9-Au) :   0.2067
B(  2-Au, 13-Au) :   0.2205 B(  2-Au, 14-Fe) :   0.3703 B(  3-Au,  4-Au) :   0.2110
B(  3-Au,  6-Au) :   0.1586 B(  3-Au,  8-Au) :   0.2245 B(  3-Au, 13-Au) :   0.2319
B(  3-Au, 14-Fe) :   0.3584 B(  4-Au,  6-Au) :   0.1531 B(  4-Au, 14-Fe) :   0.1832
B(  5-Au,  6-Au) :   0.1418 B(  5-Au, 10-Au) :   0.2271 B(  5-Au, 12-Au) :   0.1846
B(  5-Au, 14-Fe) :   0.3768 B(  6-Au, 12-Au) :   0.1906 B(  6-Au, 14-Fe) :   0.4526
B(  7-Au,  8-Au) :   0.3368 B(  7-Au,  9-Au) :   0.1290 B(  7-Au, 10-Au) :   0.2041
B(  7-Au, 11-Au) :   0.2582 B(  7-Au, 12-Au) :   0.1940 B(  7-Au, 14-Fe) :   0.4249
B(  8-Au, 12-Au) :   0.1067 B(  8-Au, 13-Au) :   0.1698 B(  8-Au, 14-Fe) :   0.3264
B(  9-Au, 11-Au) :   0.2860 B(  9-Au, 13-Au) :   0.1821 B(  9-Au, 14-Fe) :   0.4538
B( 10-Au, 11-Au) :   0.1688 B( 10-Au, 12-Au) :   0.2432 B( 10-Au, 14-Fe) :   0.2352
B( 11-Au, 14-Fe) :   0.1059 B( 12-Au, 14-Fe) :   0.3702 B( 13-Au, 14-Fe) :   0.3752

FINAL SINGLE POINT ENERGY     -3149.735779775865

DIPOLE MOMENT
-------------
                                X             Y             Z
Electronic contribution:     -4.16585      -4.88324       4.14305
Nuclear contribution   :      4.08258       5.01367      -4.13844
                        -----------------------------------------
Total Dipole Moment    :     -0.08328       0.13044       0.00461
                        -----------------------------------------
Magnitude (a.u.)       :      0.15483
Magnitude (Debye)      :      0.39354

Rotational constants in cm-1:     0.001254     0.000970     0.000958
Rotational constants in MHz :    37.594930    29.086374    28.731432

                             ****ORCA TERMINATED NORMALLY****
TOTAL RUN TIME: 0 days 0 hours 33 minutes 10 seconds 851 msec
