                         Program Version 5.0.3 -  RELEASE  -
|  1> %pal nprocs 1 end
|  2>
|  3> !PBE def2-TZVP OPT UNO
|  4> !SLOWCONV KDIIS
|  5>
|  6> %geom maxiter 300 end
|  7>
|  8> *xyzfile 0 5 1.xyz                           ****END OF INPUT****
 Total Charge           Charge          ....    0
 Multiplicity           Mult            ....    5
 Number of Electrons    NEL             ....  290
FINAL SINGLE POINT ENERGY     -2945.817729611811
FINAL SINGLE POINT ENERGY     -2945.820346787849
FINAL SINGLE POINT ENERGY     -2945.822034719141
FINAL SINGLE POINT ENERGY     -2945.823200165893
FINAL SINGLE POINT ENERGY     -2945.824240938408
FINAL SINGLE POINT ENERGY     -2945.825592143934
FINAL SINGLE POINT ENERGY     -2945.826830970999
FINAL SINGLE POINT ENERGY     -2945.827341668893
FINAL SINGLE POINT ENERGY     -2945.827518386446
FINAL SINGLE POINT ENERGY     -2945.827684957313
FINAL SINGLE POINT ENERGY     -2945.827766299837
FINAL SINGLE POINT ENERGY     -2945.827808951850
FINAL SINGLE POINT ENERGY     -2945.827837503242
FINAL SINGLE POINT ENERGY     -2945.827862278510
FINAL SINGLE POINT ENERGY     -2945.827871075976
FINAL SINGLE POINT ENERGY     -2945.827878153345
FINAL SINGLE POINT ENERGY     -2945.827881990946
                    ***********************HURRAY********************

CARTESIAN COORDINATES (ANGSTROEM)
---------------------------------
  Au     8.599284    5.097797    6.529790
  Au     9.174496    7.375059    7.974291
  Au     8.549191    9.845111    6.646898
  Au     8.918612    7.439330    5.143509
  Au     6.646373    6.036954    4.531452
  Au     6.385882    8.721686    5.120388
  Au     4.766195    6.570372    6.534817
  Au     6.028431    4.069146    6.381738
  Au     5.972783   10.778865    6.943168
  Au     5.610930   10.106325    9.636151
  Au     8.356049    9.624787    9.387177
  Au     6.643567    7.579602   10.410320
  Au     6.792348    5.590609    8.609242
  Au     3.974672    8.871900    7.676123
  Cr     6.566854    8.222795    7.813965

 Multiplicity           Mult            ....    5
 Number of Electrons    NEL             ....  290
 Basis Dimension        Dim             ....  605

ORBITAL ENERGIES
----------------
                 SPIN UP ORBITALS
  NO   OCC          E(Eh)            E(eV)
   0   1.0000    -214.484189     -5836.4115
   1   1.0000     -24.284200      -660.8067
   2   1.0000     -20.649840      -561.9107
   3   1.0000     -20.649586      -561.9038
   4   1.0000     -20.642474      -561.7103
   5   1.0000      -4.034614      -109.7874
   6   1.0000      -4.034566      -109.7861
   7   1.0000      -4.034301      -109.7789
   8   1.0000      -4.027940      -109.6058
   9   1.0000      -4.027917      -109.6052
  10   1.0000      -4.024491      -109.5120
  11   1.0000      -4.024461      -109.5111
  12   1.0000      -4.023317      -109.4800
  13   1.0000      -4.021953      -109.4429
  14   1.0000      -4.021933      -109.4424
  15   1.0000      -4.021208      -109.4226
  16   1.0000      -4.020217      -109.3957
  17   1.0000      -4.019023      -109.3632
  18   1.0000      -4.018974      -109.3618
  19   1.0000      -2.791667       -75.9651
  20   1.0000      -2.250656       -61.2435
  21   1.0000      -2.250565       -61.2410
  22   1.0000      -2.248548       -61.1861
  23   1.0000      -2.247792       -61.1655
  24   1.0000      -2.247767       -61.1649
  25   1.0000      -2.247005       -61.1441
  26   1.0000      -2.246528       -61.1311
  27   1.0000      -2.245117       -61.0927
  28   1.0000      -2.245025       -61.0902
  29   1.0000      -2.242944       -61.0336
  30   1.0000      -2.242786       -61.0293
  31   1.0000      -2.242450       -61.0202
  32   1.0000      -2.242430       -61.0196
  33   1.0000      -2.241461       -60.9933
  34   1.0000      -2.241426       -60.9923
  35   1.0000      -2.239425       -60.9378
  36   1.0000      -2.238469       -60.9118
  37   1.0000      -2.238334       -60.9082
  38   1.0000      -2.237859       -60.8952
  39   1.0000      -2.237840       -60.8947
  40   1.0000      -2.237569       -60.8873
  41   1.0000      -2.237062       -60.8735
  42   1.0000      -2.236620       -60.8615
  43   1.0000      -2.236134       -60.8483
  44   1.0000      -2.235965       -60.8437
  45   1.0000      -2.235590       -60.8335
  46   1.0000      -2.234998       -60.8174
  47   1.0000      -2.234551       -60.8052
  48   1.0000      -2.234090       -60.7927
  49   1.0000      -2.234054       -60.7917
  50   1.0000      -2.233877       -60.7869
  51   1.0000      -2.233569       -60.7785
  52   1.0000      -2.232787       -60.7572
  53   1.0000      -2.232286       -60.7436
  54   1.0000      -2.232180       -60.7407
  55   1.0000      -2.232064       -60.7375
  56   1.0000      -2.231951       -60.7345
  57   1.0000      -2.231629       -60.7257
  58   1.0000      -2.229840       -60.6770
  59   1.0000      -2.229777       -60.6753
  60   1.0000      -2.228009       -60.6272
  61   1.0000      -2.227173       -60.6045
  62   1.0000      -1.784936       -48.5706
  63   1.0000      -1.784817       -48.5673
  64   1.0000      -1.775165       -48.3047
  65   1.0000      -0.421999       -11.4832
  66   1.0000      -0.385737       -10.4964
  67   1.0000      -0.380810       -10.3624
  68   1.0000      -0.378603       -10.3023
  69   1.0000      -0.367863       -10.0101
  70   1.0000      -0.365130        -9.9357
  71   1.0000      -0.362988        -9.8774
  72   1.0000      -0.361585        -9.8392
  73   1.0000      -0.361371        -9.8334
  74   1.0000      -0.357406        -9.7255
  75   1.0000      -0.355029        -9.6608
  76   1.0000      -0.352362        -9.5883
  77   1.0000      -0.349860        -9.5202
  78   1.0000      -0.347029        -9.4431
  79   1.0000      -0.343763        -9.3543
  80   1.0000      -0.343247        -9.3402
  81   1.0000      -0.342887        -9.3304
  82   1.0000      -0.340433        -9.2636
  83   1.0000      -0.338410        -9.2086
  84   1.0000      -0.331758        -9.0276
  85   1.0000      -0.331368        -9.0170
  86   1.0000      -0.329497        -8.9661
  87   1.0000      -0.328434        -8.9371
  88   1.0000      -0.327092        -8.9006
  89   1.0000      -0.322085        -8.7644
  90   1.0000      -0.321601        -8.7512
  91   1.0000      -0.320754        -8.7282
  92   1.0000      -0.319041        -8.6815
  93   1.0000      -0.316738        -8.6189
  94   1.0000      -0.316340        -8.6080
  95   1.0000      -0.311263        -8.4699
  96   1.0000      -0.310044        -8.4367
  97   1.0000      -0.306761        -8.3474
  98   1.0000      -0.305842        -8.3224
  99   1.0000      -0.304481        -8.2854
 100   1.0000      -0.301988        -8.2175
 101   1.0000      -0.296991        -8.0815
 102   1.0000      -0.293612        -7.9896
 103   1.0000      -0.292892        -7.9700
 104   1.0000      -0.287215        -7.8155
 105   1.0000      -0.284791        -7.7496
 106   1.0000      -0.283777        -7.7220
 107   1.0000      -0.282481        -7.6867
 108   1.0000      -0.281680        -7.6649
 109   1.0000      -0.280022        -7.6198
 110   1.0000      -0.278560        -7.5800
 111   1.0000      -0.275472        -7.4960
 112   1.0000      -0.274552        -7.4709
 113   1.0000      -0.273500        -7.4423
 114   1.0000      -0.271407        -7.3854
 115   1.0000      -0.269469        -7.3326
 116   1.0000      -0.267068        -7.2673
 117   1.0000      -0.266107        -7.2411
 118   1.0000      -0.264800        -7.2056
 119   1.0000      -0.263757        -7.1772
 120   1.0000      -0.261497        -7.1157
 121   1.0000      -0.260835        -7.0977
 122   1.0000      -0.259645        -7.0653
 123   1.0000      -0.259485        -7.0610
 124   1.0000      -0.256324        -6.9749
 125   1.0000      -0.253614        -6.9012
 126   1.0000      -0.253065        -6.8863
 127   1.0000      -0.252382        -6.8677
 128   1.0000      -0.252284        -6.8650
 129   1.0000      -0.251071        -6.8320
 130   1.0000      -0.248316        -6.7570
 131   1.0000      -0.248208        -6.7541
 132   1.0000      -0.245776        -6.6879
 133   1.0000      -0.244865        -6.6631
 134   1.0000      -0.241656        -6.5758
 135   1.0000      -0.241486        -6.5712
 136   1.0000      -0.241228        -6.5642
 137   1.0000      -0.238513        -6.4903
 138   1.0000      -0.235979        -6.4213
 139   1.0000      -0.220870        -6.0102
 140   1.0000      -0.217492        -5.9183
 141   1.0000      -0.217057        -5.9064
 142   1.0000      -0.215427        -5.8621
 143   1.0000      -0.210916        -5.7393
 144   1.0000      -0.190852        -5.1933
 145   1.0000      -0.190333        -5.1792
 146   1.0000      -0.183965        -5.0060
 147   0.0000      -0.169479        -4.6118
 148   0.0000      -0.167531        -4.5587
 149   0.0000      -0.135525        -3.6878
 150   0.0000      -0.133188        -3.6242
 151   0.0000      -0.130447        -3.5496

                 SPIN DOWN ORBITALS
  NO   OCC          E(Eh)            E(eV)
   0   1.0000    -214.483758     -5836.3998
   1   1.0000     -24.236081      -659.4973
   2   1.0000     -20.615008      -560.9629
   3   1.0000     -20.614811      -560.9575
   4   1.0000     -20.601798      -560.6034
   5   1.0000      -4.033819      -109.7658
   6   1.0000      -4.033772      -109.7645
   7   1.0000      -4.033622      -109.7604
   8   1.0000      -4.027301      -109.5884
   9   1.0000      -4.027277      -109.5878
  10   1.0000      -4.023381      -109.4818
  11   1.0000      -4.023351      -109.4809
  12   1.0000      -4.023112      -109.4744
  13   1.0000      -4.021113      -109.4200
  14   1.0000      -4.021094      -109.4195
  15   1.0000      -4.020302      -109.3980
  16   1.0000      -4.019886      -109.3867
  17   1.0000      -4.018744      -109.3556
  18   1.0000      -4.018696      -109.3543
  19   1.0000      -2.661573       -72.4251
  20   1.0000      -2.249722       -61.2181
  21   1.0000      -2.249592       -61.2145
  22   1.0000      -2.247841       -61.1669
  23   1.0000      -2.247060       -61.1456
  24   1.0000      -2.246978       -61.1434
  25   1.0000      -2.246050       -61.1181
  26   1.0000      -2.245633       -61.1068
  27   1.0000      -2.244478       -61.0753
  28   1.0000      -2.244379       -61.0727
  29   1.0000      -2.241794       -61.0023
  30   1.0000      -2.241768       -61.0016
  31   1.0000      -2.241715       -61.0002
  32   1.0000      -2.241569       -60.9962
  33   1.0000      -2.240667       -60.9716
  34   1.0000      -2.240635       -60.9708
  35   1.0000      -2.239070       -60.9282
  36   1.0000      -2.237755       -60.8924
  37   1.0000      -2.237664       -60.8899
  38   1.0000      -2.237407       -60.8829
  39   1.0000      -2.236728       -60.8645
  40   1.0000      -2.236652       -60.8624
  41   1.0000      -2.235944       -60.8431
  42   1.0000      -2.235518       -60.8315
  43   1.0000      -2.235459       -60.8299
  44   1.0000      -2.235220       -60.8234
  45   1.0000      -2.234898       -60.8147
  46   1.0000      -2.234587       -60.8062
  47   1.0000      -2.233875       -60.7868
  48   1.0000      -2.233578       -60.7787
  49   1.0000      -2.233352       -60.7726
  50   1.0000      -2.232779       -60.7570
  51   1.0000      -2.232752       -60.7563
  52   1.0000      -2.232333       -60.7449
  53   1.0000      -2.231956       -60.7346
  54   1.0000      -2.231622       -60.7255
  55   1.0000      -2.231535       -60.7231
  56   1.0000      -2.231356       -60.7183
  57   1.0000      -2.231177       -60.7134
  58   1.0000      -2.228974       -60.6535
  59   1.0000      -2.228909       -60.6517
  60   1.0000      -2.227768       -60.6207
  61   1.0000      -2.226939       -60.5981
  62   1.0000      -1.663602       -45.2689
  63   1.0000      -1.662377       -45.2356
  64   1.0000      -1.634052       -44.4648
  65   1.0000      -0.415226       -11.2989
  66   1.0000      -0.383364       -10.4319
  67   1.0000      -0.379044       -10.3143
  68   1.0000      -0.375744       -10.2245
  69   1.0000      -0.365471        -9.9450
  70   1.0000      -0.361804        -9.8452
  71   1.0000      -0.361163        -9.8278
  72   1.0000      -0.357955        -9.7404
  73   1.0000      -0.357587        -9.7304
  74   1.0000      -0.356104        -9.6901
  75   1.0000      -0.352292        -9.5864
  76   1.0000      -0.350364        -9.5339
  77   1.0000      -0.348932        -9.4949
  78   1.0000      -0.345930        -9.4132
  79   1.0000      -0.343070        -9.3354
  80   1.0000      -0.341295        -9.2871
  81   1.0000      -0.341127        -9.2825
  82   1.0000      -0.337902        -9.1948
  83   1.0000      -0.337172        -9.1749
  84   1.0000      -0.330535        -8.9943
  85   1.0000      -0.329866        -8.9761
  86   1.0000      -0.327309        -8.9065
  87   1.0000      -0.326711        -8.8903
  88   1.0000      -0.325414        -8.8550
  89   1.0000      -0.320620        -8.7245
  90   1.0000      -0.320184        -8.7127
  91   1.0000      -0.319921        -8.7055
  92   1.0000      -0.317388        -8.6366
  93   1.0000      -0.315375        -8.5818
  94   1.0000      -0.311172        -8.4674
  95   1.0000      -0.309978        -8.4349
  96   1.0000      -0.307885        -8.3780
  97   1.0000      -0.305956        -8.3255
  98   1.0000      -0.304594        -8.2884
  99   1.0000      -0.301119        -8.1939
 100   1.0000      -0.300926        -8.1886
 101   1.0000      -0.296223        -8.0606
 102   1.0000      -0.290571        -7.9068
 103   1.0000      -0.289660        -7.8820
 104   1.0000      -0.286120        -7.7857
 105   1.0000      -0.283951        -7.7267
 106   1.0000      -0.282214        -7.6794
 107   1.0000      -0.281234        -7.6528
 108   1.0000      -0.280911        -7.6440
 109   1.0000      -0.278092        -7.5673
 110   1.0000      -0.277968        -7.5639
 111   1.0000      -0.274578        -7.4717
 112   1.0000      -0.273908        -7.4534
 113   1.0000      -0.272354        -7.4111
 114   1.0000      -0.271054        -7.3757
 115   1.0000      -0.268353        -7.3023
 116   1.0000      -0.266545        -7.2530
 117   1.0000      -0.265642        -7.2285
 118   1.0000      -0.263828        -7.1791
 119   1.0000      -0.262943        -7.1550
 120   1.0000      -0.260203        -7.0805
 121   1.0000      -0.260098        -7.0776
 122   1.0000      -0.259079        -7.0499
 123   1.0000      -0.258355        -7.0302
 124   1.0000      -0.255702        -6.9580
 125   1.0000      -0.252829        -6.8798
 126   1.0000      -0.252362        -6.8671
 127   1.0000      -0.251538        -6.8447
 128   1.0000      -0.251292        -6.8380
 129   1.0000      -0.250277        -6.8104
 130   1.0000      -0.247542        -6.7360
 131   1.0000      -0.247346        -6.7306
 132   1.0000      -0.244941        -6.6652
 133   1.0000      -0.244225        -6.6457
 134   1.0000      -0.240717        -6.5502
 135   1.0000      -0.240474        -6.5436
 136   1.0000      -0.240309        -6.5391
 137   1.0000      -0.237723        -6.4688
 138   1.0000      -0.235261        -6.4018
 139   1.0000      -0.216940        -5.9032
 140   1.0000      -0.210865        -5.7379
 141   1.0000      -0.210434        -5.7262
 142   1.0000      -0.205826        -5.6008
 143   0.0000      -0.174788        -4.7562
 144   0.0000      -0.141344        -3.8462
 145   0.0000      -0.139681        -3.8009
 146   0.0000      -0.136990        -3.7277
 147   0.0000      -0.126914        -3.4535

MULLIKEN ATOMIC CHARGES AND SPIN POPULATIONS
--------------------------------------------
   0 Au:    0.181084    0.085927
   1 Au:    0.314328    0.019815
   2 Au:    0.271132    0.010587
   3 Au:    0.152660    0.028602
   4 Au:    0.181566    0.085910
   5 Au:    0.314223    0.019977
   6 Au:    0.073907    0.017412
   7 Au:    0.377353    0.077784
   8 Au:    0.528848    0.028214
   9 Au:    0.413515    0.042567
  10 Au:    0.528504    0.028338
  11 Au:    0.356463    0.025424
  12 Au:    0.072906    0.017207
  13 Au:    0.356249    0.025461
  14 Cr:   -4.122737    3.486774
Sum of atomic charges         :   -0.0000000

LOEWDIN ATOMIC CHARGES AND SPIN POPULATIONS
-------------------------------------------
   0 Au:    0.004197    0.063500
   1 Au:    0.096642    0.022591
   2 Au:    0.101098    0.003646
   3 Au:    0.058009    0.028705
   4 Au:    0.004101    0.063529
   5 Au:    0.096690    0.022677
   6 Au:    0.052263    0.036350
   7 Au:    0.088937    0.067656
   8 Au:    0.117073    0.006980
   9 Au:    0.097167    0.031776
  10 Au:    0.116885    0.006994
  11 Au:    0.159235    0.007541
  12 Au:    0.051904    0.036280
  13 Au:    0.159167    0.007614
  14 Cr:   -1.203368    3.594161

  Mayer bond orders larger than 0.100000
B(  0-Au,  1-Au) :   0.2970 B(  0-Au,  3-Au) :   0.3065 B(  0-Au,  4-Au) :   0.1404
B(  0-Au,  7-Au) :   0.2620 B(  0-Au, 12-Au) :   0.2229 B(  0-Au, 14-Cr) :   0.3602
B(  1-Au,  2-Au) :   0.2032 B(  1-Au,  3-Au) :   0.2338 B(  1-Au, 10-Au) :   0.2490
B(  1-Au, 14-Cr) :   0.6636 B(  2-Au,  3-Au) :   0.1772 B(  2-Au,  5-Au) :   0.2017
B(  2-Au,  8-Au) :   0.2674 B(  2-Au, 10-Au) :   0.2675 B(  2-Au, 14-Cr) :   0.4304
B(  3-Au,  4-Au) :   0.3064 B(  3-Au,  5-Au) :   0.2358 B(  3-Au, 14-Cr) :   0.3075
B(  4-Au,  5-Au) :   0.2952 B(  4-Au,  6-Au) :   0.2229 B(  4-Au,  7-Au) :   0.2631
B(  4-Au, 14-Cr) :   0.3599 B(  5-Au,  8-Au) :   0.2493 B(  5-Au, 14-Cr) :   0.6632
B(  6-Au,  7-Au) :   0.2833 B(  6-Au, 12-Au) :   0.1842 B(  6-Au, 13-Au) :   0.4023
B(  6-Au, 14-Cr) :   0.5418 B(  7-Au, 12-Au) :   0.2847 B(  7-Au, 14-Cr) :   0.1747
B(  8-Au,  9-Au) :   0.2210 B(  8-Au, 13-Au) :   0.1836 B(  8-Au, 14-Cr) :   0.5518
B(  9-Au, 10-Au) :   0.2215 B(  9-Au, 11-Au) :   0.2489 B(  9-Au, 12-Au) :   0.1000
B(  9-Au, 13-Au) :   0.2496 B(  9-Au, 14-Cr) :   0.3326 B( 10-Au, 11-Au) :   0.1838
B( 10-Au, 14-Cr) :   0.5517 B( 11-Au, 12-Au) :   0.4029 B( 11-Au, 14-Cr) :   0.6905
B( 12-Au, 14-Cr) :   0.5414 B( 13-Au, 14-Cr) :   0.6902

FINAL SINGLE POINT ENERGY     -2945.827883820550

DIPOLE MOMENT
-------------
                                X             Y             Z
Electronic contribution:     11.28173     -18.34083     -19.66145
Nuclear contribution   :    -11.27451      18.64037      19.79442
                        -----------------------------------------
Total Dipole Moment    :      0.00722       0.29954       0.13296
                        -----------------------------------------
Magnitude (a.u.)       :      0.32780
Magnitude (Debye)      :      0.83320

Rotational constants in cm-1:     0.001289     0.000890     0.000878
Rotational constants in MHz :    38.654436    26.690810    26.325999

                             ****ORCA TERMINATED NORMALLY****
TOTAL RUN TIME: 0 days 3 hours 12 minutes 31 seconds 284 msec
