                         Program Version 5.0.3 -  RELEASE  -
|  1> %pal nprocs 1 end
|  2>
|  3> !PBE def2-TZVP OPT UNO
|  4> !SLOWCONV KDIIS
|  5>
|  6> %geom maxiter 300 end
|  7>
|  8> *xyzfile 0 5 1.xyz                           ****END OF INPUT****
 Total Charge           Charge          ....    0
 Multiplicity           Mult            ....    5
 Number of Electrons    NEL             ....  252
FINAL SINGLE POINT ENERGY     -2674.123432323021
FINAL SINGLE POINT ENERGY     -2674.126046255546
FINAL SINGLE POINT ENERGY     -2674.127917932313
FINAL SINGLE POINT ENERGY     -2674.129287086717
FINAL SINGLE POINT ENERGY     -2674.129949595581
FINAL SINGLE POINT ENERGY     -2674.130831842135
FINAL SINGLE POINT ENERGY     -2674.132130395484
FINAL SINGLE POINT ENERGY     -2674.133294172699
FINAL SINGLE POINT ENERGY     -2674.134057494107
FINAL SINGLE POINT ENERGY     -2674.134746438454
FINAL SINGLE POINT ENERGY     -2674.149540577958
FINAL SINGLE POINT ENERGY     -2674.149567723839
FINAL SINGLE POINT ENERGY     -2674.149590750420
FINAL SINGLE POINT ENERGY     -2674.149604148769
FINAL SINGLE POINT ENERGY     -2674.149610665143
FINAL SINGLE POINT ENERGY     -2674.149613649628
FINAL SINGLE POINT ENERGY     -2674.149617458520
FINAL SINGLE POINT ENERGY     -2674.149618471548
FINAL SINGLE POINT ENERGY     -2674.149619925363
                    ***********************HURRAY********************

CARTESIAN COORDINATES (ANGSTROEM)
---------------------------------
  Au     7.292753   11.951582    7.623145
  Au     9.142651   10.603493    5.693257
  Au     6.235055    6.889340    6.235037
  Au     8.792937    5.593985    7.577206
  Au     6.676576    9.520209    6.474811
  Au     9.187983    7.910657    6.267125
  Au     8.100475    5.927086   10.348799
  Au     8.760288    8.610978   10.645654
  Au     5.772224    7.669340   10.472867
  Au     9.143096    9.981058    8.383829
  Au     6.292013   10.058561    9.352647
  Au     6.049246    5.479205    8.605275
  Cr     7.502774    7.774206    8.431196

 Multiplicity           Mult            ....    5
 Number of Electrons    NEL             ....  252
 Basis Dimension        Dim             ....  525

ORBITAL ENERGIES
----------------
                 SPIN UP ORBITALS
  NO   OCC          E(Eh)            E(eV)
   0   1.0000    -214.491496     -5836.6103
   1   1.0000     -24.293845      -661.0691
   2   1.0000     -20.659580      -562.1757
   3   1.0000     -20.655885      -562.0752
   4   1.0000     -20.655693      -562.0700
   5   1.0000      -4.032925      -109.7415
   6   1.0000      -4.031953      -109.7150
   7   1.0000      -4.026062      -109.5547
   8   1.0000      -4.025567      -109.5413
   9   1.0000      -4.022529      -109.4586
  10   1.0000      -4.022418      -109.4555
  11   1.0000      -4.022396      -109.4550
  12   1.0000      -4.022084      -109.4465
  13   1.0000      -4.019405      -109.3736
  14   1.0000      -4.018873      -109.3591
  15   1.0000      -4.017753      -109.3286
  16   1.0000      -4.017578      -109.3239
  17   1.0000      -2.797395       -76.1210
  18   1.0000      -2.250742       -61.2458
  19   1.0000      -2.249903       -61.2230
  20   1.0000      -2.245800       -61.1113
  21   1.0000      -2.244657       -61.0802
  22   1.0000      -2.243586       -61.0511
  23   1.0000      -2.242648       -61.0255
  24   1.0000      -2.241500       -60.9943
  25   1.0000      -2.240892       -60.9778
  26   1.0000      -2.240522       -60.9677
  27   1.0000      -2.239921       -60.9514
  28   1.0000      -2.239798       -60.9480
  29   1.0000      -2.239307       -60.9347
  30   1.0000      -2.239185       -60.9313
  31   1.0000      -2.239048       -60.9276
  32   1.0000      -2.236591       -60.8607
  33   1.0000      -2.236357       -60.8544
  34   1.0000      -2.236159       -60.8490
  35   1.0000      -2.236078       -60.8468
  36   1.0000      -2.235817       -60.8397
  37   1.0000      -2.235538       -60.8321
  38   1.0000      -2.234327       -60.7991
  39   1.0000      -2.233934       -60.7884
  40   1.0000      -2.233043       -60.7642
  41   1.0000      -2.232836       -60.7586
  42   1.0000      -2.232267       -60.7431
  43   1.0000      -2.231957       -60.7346
  44   1.0000      -2.230474       -60.6943
  45   1.0000      -2.230014       -60.6818
  46   1.0000      -2.229779       -60.6754
  47   1.0000      -2.229400       -60.6651
  48   1.0000      -2.229278       -60.6617
  49   1.0000      -2.229082       -60.6564
  50   1.0000      -2.228765       -60.6478
  51   1.0000      -2.228440       -60.6389
  52   1.0000      -2.228106       -60.6298
  53   1.0000      -2.227433       -60.6115
  54   1.0000      -1.790198       -48.7138
  55   1.0000      -1.786140       -48.6033
  56   1.0000      -1.784851       -48.5683
  57   1.0000      -0.419885       -11.4256
  58   1.0000      -0.390716       -10.6319
  59   1.0000      -0.372811       -10.1447
  60   1.0000      -0.372205       -10.1282
  61   1.0000      -0.368609       -10.0304
  62   1.0000      -0.362986        -9.8773
  63   1.0000      -0.362639        -9.8679
  64   1.0000      -0.357345        -9.7238
  65   1.0000      -0.348733        -9.4895
  66   1.0000      -0.347583        -9.4582
  67   1.0000      -0.344999        -9.3879
  68   1.0000      -0.344772        -9.3817
  69   1.0000      -0.340278        -9.2594
  70   1.0000      -0.337600        -9.1866
  71   1.0000      -0.335416        -9.1271
  72   1.0000      -0.332212        -9.0400
  73   1.0000      -0.330469        -8.9925
  74   1.0000      -0.329205        -8.9581
  75   1.0000      -0.322198        -8.7674
  76   1.0000      -0.321814        -8.7570
  77   1.0000      -0.320158        -8.7119
  78   1.0000      -0.318072        -8.6552
  79   1.0000      -0.316911        -8.6236
  80   1.0000      -0.315791        -8.5931
  81   1.0000      -0.313047        -8.5184
  82   1.0000      -0.309525        -8.4226
  83   1.0000      -0.306922        -8.3518
  84   1.0000      -0.301028        -8.1914
  85   1.0000      -0.298777        -8.1301
  86   1.0000      -0.295054        -8.0288
  87   1.0000      -0.290401        -7.9022
  88   1.0000      -0.289450        -7.8763
  89   1.0000      -0.288044        -7.8381
  90   1.0000      -0.285791        -7.7768
  91   1.0000      -0.282670        -7.6918
  92   1.0000      -0.282309        -7.6820
  93   1.0000      -0.280379        -7.6295
  94   1.0000      -0.277782        -7.5588
  95   1.0000      -0.275509        -7.4970
  96   1.0000      -0.275086        -7.4855
  97   1.0000      -0.272656        -7.4193
  98   1.0000      -0.271776        -7.3954
  99   1.0000      -0.270506        -7.3608
 100   1.0000      -0.270146        -7.3511
 101   1.0000      -0.268439        -7.3046
 102   1.0000      -0.267554        -7.2805
 103   1.0000      -0.265464        -7.2236
 104   1.0000      -0.264127        -7.1873
 105   1.0000      -0.260869        -7.0986
 106   1.0000      -0.260182        -7.0799
 107   1.0000      -0.258723        -7.0402
 108   1.0000      -0.256915        -6.9910
 109   1.0000      -0.256812        -6.9882
 110   1.0000      -0.255561        -6.9542
 111   1.0000      -0.252323        -6.8661
 112   1.0000      -0.251806        -6.8520
 113   1.0000      -0.250967        -6.8292
 114   1.0000      -0.248680        -6.7669
 115   1.0000      -0.244931        -6.6649
 116   1.0000      -0.244850        -6.6627
 117   1.0000      -0.243126        -6.6158
 118   1.0000      -0.240680        -6.5492
 119   1.0000      -0.236370        -6.4320
 120   1.0000      -0.226844        -6.1727
 121   1.0000      -0.221469        -6.0265
 122   1.0000      -0.213744        -5.8163
 123   1.0000      -0.213441        -5.8080
 124   1.0000      -0.209703        -5.7063
 125   1.0000      -0.208385        -5.6704
 126   1.0000      -0.191365        -5.2073
 127   1.0000      -0.184305        -5.0152
 128   0.0000      -0.167585        -4.5602
 129   0.0000      -0.161763        -4.4018
 130   0.0000      -0.144349        -3.9279
 131   0.0000      -0.126672        -3.4469
 132   0.0000      -0.120116        -3.2685

                 SPIN DOWN ORBITALS
  NO   OCC          E(Eh)            E(eV)
   0   1.0000    -214.491062     -5836.5985
   1   1.0000     -24.247622      -659.8114
   2   1.0000     -20.625679      -561.2533
   3   1.0000     -20.620852      -561.1219
   4   1.0000     -20.618668      -561.0625
   5   1.0000      -4.031641      -109.7065
   6   1.0000      -4.030684      -109.6805
   7   1.0000      -4.025098      -109.5285
   8   1.0000      -4.024609      -109.5152
   9   1.0000      -4.021274      -109.4244
  10   1.0000      -4.021173      -109.4217
  11   1.0000      -4.021138      -109.4207
  12   1.0000      -4.020855      -109.4130
  13   1.0000      -4.017993      -109.3351
  14   1.0000      -4.017481      -109.3212
  15   1.0000      -4.017191      -109.3133
  16   1.0000      -4.017038      -109.3092
  17   1.0000      -2.672662       -72.7268
  18   1.0000      -2.249178       -61.2033
  19   1.0000      -2.248368       -61.1812
  20   1.0000      -2.244224       -61.0684
  21   1.0000      -2.243126       -61.0386
  22   1.0000      -2.242312       -61.0164
  23   1.0000      -2.241605       -60.9972
  24   1.0000      -2.240491       -60.9669
  25   1.0000      -2.239459       -60.9388
  26   1.0000      -2.239336       -60.9354
  27   1.0000      -2.238805       -60.9210
  28   1.0000      -2.238682       -60.9176
  29   1.0000      -2.238141       -60.9029
  30   1.0000      -2.237748       -60.8922
  31   1.0000      -2.237611       -60.8885
  32   1.0000      -2.235620       -60.8343
  33   1.0000      -2.234808       -60.8122
  34   1.0000      -2.234638       -60.8076
  35   1.0000      -2.234589       -60.8062
  36   1.0000      -2.234459       -60.8027
  37   1.0000      -2.234342       -60.7995
  38   1.0000      -2.232784       -60.7571
  39   1.0000      -2.232525       -60.7501
  40   1.0000      -2.231967       -60.7349
  41   1.0000      -2.231809       -60.7306
  42   1.0000      -2.231099       -60.7113
  43   1.0000      -2.230669       -60.6996
  44   1.0000      -2.229349       -60.6637
  45   1.0000      -2.229290       -60.6621
  46   1.0000      -2.228889       -60.6511
  47   1.0000      -2.228466       -60.6396
  48   1.0000      -2.228346       -60.6364
  49   1.0000      -2.228265       -60.6342
  50   1.0000      -2.228194       -60.6323
  51   1.0000      -2.228016       -60.6274
  52   1.0000      -2.226540       -60.5872
  53   1.0000      -2.225866       -60.5689
  54   1.0000      -1.672041       -45.4986
  55   1.0000      -1.662677       -45.2437
  56   1.0000      -1.657865       -45.1128
  57   1.0000      -0.412986       -11.2379
  58   1.0000      -0.386444       -10.5157
  59   1.0000      -0.371519       -10.1096
  60   1.0000      -0.369430       -10.0527
  61   1.0000      -0.362957        -9.8766
  62   1.0000      -0.360426        -9.8077
  63   1.0000      -0.357125        -9.7179
  64   1.0000      -0.352794        -9.6000
  65   1.0000      -0.346423        -9.4266
  66   1.0000      -0.343555        -9.3486
  67   1.0000      -0.343249        -9.3403
  68   1.0000      -0.342855        -9.3295
  69   1.0000      -0.337843        -9.1932
  70   1.0000      -0.333920        -9.0864
  71   1.0000      -0.332813        -9.0563
  72   1.0000      -0.328523        -8.9396
  73   1.0000      -0.327904        -8.9227
  74   1.0000      -0.325353        -8.8533
  75   1.0000      -0.320521        -8.7218
  76   1.0000      -0.319322        -8.6892
  77   1.0000      -0.316412        -8.6100
  78   1.0000      -0.315687        -8.5903
  79   1.0000      -0.313307        -8.5255
  80   1.0000      -0.312246        -8.4966
  81   1.0000      -0.311393        -8.4734
  82   1.0000      -0.308536        -8.3957
  83   1.0000      -0.303938        -8.2706
  84   1.0000      -0.299402        -8.1471
  85   1.0000      -0.296960        -8.0807
  86   1.0000      -0.292548        -7.9606
  87   1.0000      -0.287783        -7.8310
  88   1.0000      -0.286227        -7.7886
  89   1.0000      -0.286039        -7.7835
  90   1.0000      -0.285127        -7.7587
  91   1.0000      -0.281309        -7.6548
  92   1.0000      -0.280628        -7.6363
  93   1.0000      -0.279171        -7.5966
  94   1.0000      -0.275260        -7.4902
  95   1.0000      -0.274521        -7.4701
  96   1.0000      -0.273946        -7.4544
  97   1.0000      -0.271221        -7.3803
  98   1.0000      -0.271028        -7.3750
  99   1.0000      -0.269953        -7.3458
 100   1.0000      -0.269307        -7.3282
 101   1.0000      -0.267457        -7.2779
 102   1.0000      -0.266198        -7.2436
 103   1.0000      -0.263956        -7.1826
 104   1.0000      -0.263131        -7.1602
 105   1.0000      -0.259797        -7.0694
 106   1.0000      -0.259177        -7.0526
 107   1.0000      -0.257570        -7.0088
 108   1.0000      -0.255766        -6.9597
 109   1.0000      -0.255694        -6.9578
 110   1.0000      -0.254833        -6.9344
 111   1.0000      -0.251007        -6.8302
 112   1.0000      -0.249836        -6.7984
 113   1.0000      -0.249433        -6.7874
 114   1.0000      -0.247217        -6.7271
 115   1.0000      -0.243962        -6.6386
 116   1.0000      -0.243320        -6.6211
 117   1.0000      -0.240929        -6.5560
 118   1.0000      -0.239349        -6.5130
 119   1.0000      -0.234903        -6.3920
 120   1.0000      -0.225602        -6.1389
 121   1.0000      -0.215005        -5.8506
 122   1.0000      -0.205625        -5.5953
 123   1.0000      -0.195632        -5.3234
 124   0.0000      -0.187191        -5.0937
 125   0.0000      -0.151017        -4.1094
 126   0.0000      -0.134548        -3.6612
 127   0.0000      -0.121443        -3.3046
 128   0.0000      -0.117568        -3.1992

MULLIKEN ATOMIC CHARGES AND SPIN POPULATIONS
--------------------------------------------
   0 Au:    0.297521    0.135652
   1 Au:    0.297137    0.136509
   2 Au:    0.415772    0.003892
   3 Au:    0.424973    0.036517
   4 Au:    0.176414    0.039268
   5 Au:    0.240848   -0.001553
   6 Au:    0.513697    0.078759
   7 Au:    0.415119    0.006401
   8 Au:    0.430216    0.043380
   9 Au:    0.175010    0.030105
  10 Au:    0.235268   -0.005388
  11 Au:    0.508145    0.072958
  12 Cr:   -4.130121    3.423501
Sum of atomic charges         :    0.0000000

LOEWDIN ATOMIC CHARGES AND SPIN POPULATIONS
-------------------------------------------
   0 Au:    0.091028    0.095837
   1 Au:    0.091740    0.097741
   2 Au:    0.165635    0.021064
   3 Au:    0.129821    0.028507
   4 Au:    0.006754    0.058946
   5 Au:    0.068011    0.027470
   6 Au:    0.101695    0.051073
   7 Au:    0.164848    0.022265
   8 Au:    0.128670    0.033114
   9 Au:    0.007447    0.053319
  10 Au:    0.069499    0.026096
  11 Au:    0.102083    0.046154
  12 Cr:   -1.127231    3.438413

  Mayer bond orders larger than 0.100000
B(  0-Au,  1-Au) :   0.1227 B(  0-Au,  4-Au) :   0.3360 B(  0-Au,  9-Au) :   0.2568
B(  0-Au, 10-Au) :   0.3267 B(  0-Au, 12-Cr) :   0.3407 B(  1-Au,  4-Au) :   0.2604
B(  1-Au,  5-Au) :   0.3298 B(  1-Au,  9-Au) :   0.3323 B(  1-Au, 12-Cr) :   0.3384
B(  2-Au,  4-Au) :   0.4324 B(  2-Au, 11-Au) :   0.2592 B(  2-Au, 12-Cr) :   0.7298
B(  3-Au,  5-Au) :   0.4262 B(  3-Au,  6-Au) :   0.2216 B(  3-Au, 11-Au) :   0.1011
B(  3-Au, 12-Cr) :   0.6747 B(  4-Au,  6-Au) :   0.1240 B(  4-Au, 10-Au) :   0.1715
B(  4-Au, 12-Cr) :   0.4413 B(  5-Au,  9-Au) :   0.1656 B(  5-Au, 12-Cr) :   0.6948
B(  6-Au,  7-Au) :   0.2456 B(  6-Au,  8-Au) :   0.1114 B(  6-Au, 11-Au) :   0.2354
B(  6-Au, 12-Cr) :   0.4513 B(  7-Au,  9-Au) :   0.4403 B(  7-Au, 12-Cr) :   0.7328
B(  8-Au, 10-Au) :   0.4259 B(  8-Au, 11-Au) :   0.2148 B(  8-Au, 12-Cr) :   0.6645
B(  9-Au, 11-Au) :   0.1229 B(  9-Au, 12-Cr) :   0.4512 B( 10-Au, 12-Cr) :   0.7009
B( 11-Au, 12-Cr) :   0.4643

FINAL SINGLE POINT ENERGY     -2674.149620890023

DIPOLE MOMENT
-------------
                                X             Y             Z
Electronic contribution:      4.10497      20.07746     -10.16090
Nuclear contribution   :     -4.13038     -20.19841      10.22261
                        -----------------------------------------
Total Dipole Moment    :     -0.02541      -0.12095       0.06171
                        -----------------------------------------
Magnitude (a.u.)       :      0.13814
Magnitude (Debye)      :      0.35113

Rotational constants in cm-1:     0.001721     0.001155     0.000992
Rotational constants in MHz :    51.581608    34.640620    29.725386

                             ****ORCA TERMINATED NORMALLY****
TOTAL RUN TIME: 0 days 10 hours 5 minutes 56 seconds 162 msec
