                         Program Version 5.0.3 -  RELEASE  -
|  1> !RI-B2PLYP def2-TZVP def2-TZVP/C
|  2> !RIJCOSX VERYSLOWCONV
|  3>
|  4> %scf
|  5>   AutoTRAHIter 200
|  6>   maxiter 400
|  7> end
|  8>
|  9>
| 10> %pal nprocs 6 end
| 11>
| 12> *xyzfile 0 6 pbe.xyz
| 13>
| 14> $new_job
| 15>
| 16> !RI-B2PLYP def2-TZVP def2-TZVP/C
| 17> !RIJCOSX VERYSLOWCONV
| 18>
| 19> %scf
| 20>   AutoTRAHIter 200
| 21>   maxiter 400
| 22> end
| 23>
| 24>
| 25> %pal nprocs 6 end
| 26>
| 27> *xyzfile 0 4 pbe.xyz
| 28>
| 29>
| 30>
| 31>
| 32>
| 33>                          ****END OF INPUT****
 Total Charge           Charge          ....    0
 Multiplicity           Mult            ....    6
 Number of Electrons    NEL             ....  253
MP2 TOTAL ENERGY:    -2777.866343831 Eh
FINAL SINGLE POINT ENERGY     -2777.866343830556

CARTESIAN COORDINATES (ANGSTROEM)
---------------------------------
  Au     9.244805    6.943356    6.019619
  Au     6.718053    7.250413    5.287987
  Au     4.055270    7.764955    5.376700
  Au     9.323203    5.814004    8.859157
  Au    11.494314    6.852477    7.532431
  Au     9.908348    9.004264    8.173069
  Au     8.512599    7.997079   10.311913
  Au     5.291929    8.388183    9.384256
  Au     6.687267    5.888417    9.613627
  Au     5.492601    9.542651    6.901492
  Au     7.468358   10.138520    8.708064
  Au     4.909358    6.355975    7.578373
  Mn     7.435525    7.651922    7.772803

 Multiplicity           Mult            ....    4
 Number of Electrons    NEL             ....  253
 Basis Dimension        Dim             ....  525

ORBITAL ENERGIES
----------------
                 SPIN UP ORBITALS
  NO   OCC          E(Eh)            E(eV)
   0   1.0000    -237.617414     -6465.8985
   1   1.0000     -28.120943      -765.2098
   2   1.0000     -24.038940      -654.1328
   3   1.0000     -24.038877      -654.1311
   4   1.0000     -24.037937      -654.1055
   5   1.0000      -4.402039      -119.7856
   6   1.0000      -4.401995      -119.7844
   7   1.0000      -4.396946      -119.6470
   8   1.0000      -4.396913      -119.6461
   9   1.0000      -4.396818      -119.6435
  10   1.0000      -4.396773      -119.6423
  11   1.0000      -4.395438      -119.6059
  12   1.0000      -4.395085      -119.5964
  13   1.0000      -4.392154      -119.5166
  14   1.0000      -4.392109      -119.5154
  15   1.0000      -4.389155      -119.4350
  16   1.0000      -4.389129      -119.4343
  17   1.0000      -3.598648       -97.9242
  18   1.0000      -2.522958       -68.6532
  19   1.0000      -2.522879       -68.6510
  20   1.0000      -2.522380       -68.6374
  21   1.0000      -2.522314       -68.6356
  22   1.0000      -2.520069       -68.5746
  23   1.0000      -2.518207       -68.5239
  24   1.0000      -2.517810       -68.5131
  25   1.0000      -2.516791       -68.4854
  26   1.0000      -2.516427       -68.4755
  27   1.0000      -2.516049       -68.4652
  28   1.0000      -2.516010       -68.4641
  29   1.0000      -2.515463       -68.4492
  30   1.0000      -2.515431       -68.4484
  31   1.0000      -2.514544       -68.4242
  32   1.0000      -2.514500       -68.4230
  33   1.0000      -2.514320       -68.4181
  34   1.0000      -2.513534       -68.3967
  35   1.0000      -2.513136       -68.3859
  36   1.0000      -2.512569       -68.3705
  37   1.0000      -2.512414       -68.3663
  38   1.0000      -2.512121       -68.3583
  39   1.0000      -2.511284       -68.3355
  40   1.0000      -2.510710       -68.3199
  41   1.0000      -2.510683       -68.3192
  42   1.0000      -2.507865       -68.2425
  43   1.0000      -2.507671       -68.2372
  44   1.0000      -2.507002       -68.2190
  45   1.0000      -2.506737       -68.2118
  46   1.0000      -2.506424       -68.2033
  47   1.0000      -2.506218       -68.1977
  48   1.0000      -2.506160       -68.1961
  49   1.0000      -2.506137       -68.1954
  50   1.0000      -2.504308       -68.1457
  51   1.0000      -2.504293       -68.1453
  52   1.0000      -2.503503       -68.1238
  53   1.0000      -2.503310       -68.1185
  54   1.0000      -2.400805       -65.3292
  55   1.0000      -2.399627       -65.2972
  56   1.0000      -2.399286       -65.2879
  57   1.0000      -0.513614       -13.9761
  58   1.0000      -0.510816       -13.9000
  59   1.0000      -0.508349       -13.8329
  60   1.0000      -0.508134       -13.8270
  61   1.0000      -0.507326       -13.8050
  62   1.0000      -0.492873       -13.4117
  63   1.0000      -0.469401       -12.7731
  64   1.0000      -0.460680       -12.5357
  65   1.0000      -0.457693       -12.4545
  66   1.0000      -0.456385       -12.4189
  67   1.0000      -0.452025       -12.3002
  68   1.0000      -0.449559       -12.2331
  69   1.0000      -0.449118       -12.2211
  70   1.0000      -0.445714       -12.1285
  71   1.0000      -0.443146       -12.0586
  72   1.0000      -0.440452       -11.9853
  73   1.0000      -0.439524       -11.9601
  74   1.0000      -0.439116       -11.9489
  75   1.0000      -0.434589       -11.8258
  76   1.0000      -0.434493       -11.8232
  77   1.0000      -0.428057       -11.6480
  78   1.0000      -0.427307       -11.6276
  79   1.0000      -0.424062       -11.5393
  80   1.0000      -0.423120       -11.5137
  81   1.0000      -0.419715       -11.4210
  82   1.0000      -0.416610       -11.3365
  83   1.0000      -0.416048       -11.3212
  84   1.0000      -0.409697       -11.1484
  85   1.0000      -0.400095       -10.8872
  86   1.0000      -0.398933       -10.8555
  87   1.0000      -0.396041       -10.7768
  88   1.0000      -0.391368       -10.6497
  89   1.0000      -0.390859       -10.6358
  90   1.0000      -0.389466       -10.5979
  91   1.0000      -0.388071       -10.5600
  92   1.0000      -0.385723       -10.4961
  93   1.0000      -0.384670       -10.4674
  94   1.0000      -0.383206       -10.4276
  95   1.0000      -0.377903       -10.2833
  96   1.0000      -0.376450       -10.2437
  97   1.0000      -0.373435       -10.1617
  98   1.0000      -0.369503       -10.0547
  99   1.0000      -0.369485       -10.0542
 100   1.0000      -0.368452       -10.0261
 101   1.0000      -0.367238        -9.9930
 102   1.0000      -0.366773        -9.9804
 103   1.0000      -0.364221        -9.9110
 104   1.0000      -0.363989        -9.9046
 105   1.0000      -0.362444        -9.8626
 106   1.0000      -0.360028        -9.7968
 107   1.0000      -0.359294        -9.7769
 108   1.0000      -0.357156        -9.7187
 109   1.0000      -0.356279        -9.6948
 110   1.0000      -0.353549        -9.6206
 111   1.0000      -0.351695        -9.5701
 112   1.0000      -0.351575        -9.5668
 113   1.0000      -0.351038        -9.5522
 114   1.0000      -0.349142        -9.5006
 115   1.0000      -0.347946        -9.4681
 116   1.0000      -0.346165        -9.4196
 117   1.0000      -0.343360        -9.3433
 118   1.0000      -0.343009        -9.3337
 119   1.0000      -0.339543        -9.2394
 120   1.0000      -0.328080        -8.9275
 121   1.0000      -0.322921        -8.7871
 122   1.0000      -0.317753        -8.6465
 123   1.0000      -0.316198        -8.6042
 124   1.0000      -0.298929        -8.1343
 125   1.0000      -0.269484        -7.3330
 126   1.0000      -0.238526        -6.4906
 127   1.0000      -0.224138        -6.0991
 128   0.0000      -0.122998        -3.3469
 129   0.0000      -0.088604        -2.4110
 130   0.0000      -0.072380        -1.9695
 131   0.0000      -0.070437        -1.9167
 132   0.0000      -0.067668        -1.8413

                 SPIN DOWN ORBITALS
  NO   OCC          E(Eh)            E(eV)
   0   1.0000    -237.615298     -6465.8410
   1   1.0000     -28.020293      -762.4709
   2   1.0000     -23.946704      -651.6229
   3   1.0000     -23.946180      -651.6087
   4   1.0000     -23.945569      -651.5921
   5   1.0000      -4.401246      -119.7640
   6   1.0000      -4.401202      -119.7628
   7   1.0000      -4.397439      -119.6604
   8   1.0000      -4.397411      -119.6596
   9   1.0000      -4.397316      -119.6571
  10   1.0000      -4.397277      -119.6560
  11   1.0000      -4.394394      -119.5775
  12   1.0000      -4.394039      -119.5679
  13   1.0000      -4.393371      -119.5497
  14   1.0000      -4.393328      -119.5485
  15   1.0000      -4.389581      -119.4466
  16   1.0000      -4.389563      -119.4461
  17   1.0000      -3.315650       -90.2234
  18   1.0000      -2.521469       -68.6127
  19   1.0000      -2.521363       -68.6098
  20   1.0000      -2.521106       -68.6028
  21   1.0000      -2.521060       -68.6015
  22   1.0000      -2.518362       -68.5281
  23   1.0000      -2.517313       -68.4996
  24   1.0000      -2.516909       -68.4886
  25   1.0000      -2.516085       -68.4662
  26   1.0000      -2.515812       -68.4587
  27   1.0000      -2.515664       -68.4547
  28   1.0000      -2.515065       -68.4384
  29   1.0000      -2.514876       -68.4333
  30   1.0000      -2.514595       -68.4256
  31   1.0000      -2.513824       -68.4046
  32   1.0000      -2.513782       -68.4035
  33   1.0000      -2.513064       -68.3840
  34   1.0000      -2.512993       -68.3820
  35   1.0000      -2.512744       -68.3752
  36   1.0000      -2.512300       -68.3632
  37   1.0000      -2.511572       -68.3434
  38   1.0000      -2.511213       -68.3336
  39   1.0000      -2.510560       -68.3158
  40   1.0000      -2.510433       -68.3124
  41   1.0000      -2.510407       -68.3116
  42   1.0000      -2.509218       -68.2793
  43   1.0000      -2.509034       -68.2743
  44   1.0000      -2.507589       -68.2350
  45   1.0000      -2.507342       -68.2282
  46   1.0000      -2.507267       -68.2262
  47   1.0000      -2.506318       -68.2004
  48   1.0000      -2.506261       -68.1988
  49   1.0000      -2.505692       -68.1834
  50   1.0000      -2.505289       -68.1724
  51   1.0000      -2.505253       -68.1714
  52   1.0000      -2.503926       -68.1353
  53   1.0000      -2.503543       -68.1249
  54   1.0000      -2.076668       -56.5090
  55   1.0000      -2.076348       -56.5003
  56   1.0000      -2.075216       -56.4695
  57   1.0000      -0.496492       -13.5102
  58   1.0000      -0.470463       -12.8020
  59   1.0000      -0.468615       -12.7517
  60   1.0000      -0.466804       -12.7024
  61   1.0000      -0.466613       -12.6972
  62   1.0000      -0.462061       -12.5733
  63   1.0000      -0.460951       -12.5431
  64   1.0000      -0.458555       -12.4779
  65   1.0000      -0.447966       -12.1898
  66   1.0000      -0.447286       -12.1713
  67   1.0000      -0.444919       -12.1068
  68   1.0000      -0.444704       -12.1010
  69   1.0000      -0.442873       -12.0512
  70   1.0000      -0.440161       -11.9774
  71   1.0000      -0.436889       -11.8884
  72   1.0000      -0.434740       -11.8299
  73   1.0000      -0.431714       -11.7475
  74   1.0000      -0.430376       -11.7111
  75   1.0000      -0.426016       -11.5925
  76   1.0000      -0.423654       -11.5282
  77   1.0000      -0.422450       -11.4954
  78   1.0000      -0.421431       -11.4677
  79   1.0000      -0.413752       -11.2588
  80   1.0000      -0.413683       -11.2569
  81   1.0000      -0.410857       -11.1800
  82   1.0000      -0.408068       -11.1041
  83   1.0000      -0.400777       -10.9057
  84   1.0000      -0.396093       -10.7782
  85   1.0000      -0.394208       -10.7270
  86   1.0000      -0.391472       -10.6525
  87   1.0000      -0.390205       -10.6180
  88   1.0000      -0.388728       -10.5778
  89   1.0000      -0.388400       -10.5689
  90   1.0000      -0.382046       -10.3960
  91   1.0000      -0.379355       -10.3228
  92   1.0000      -0.379095       -10.3157
  93   1.0000      -0.377294       -10.2667
  94   1.0000      -0.375047       -10.2056
  95   1.0000      -0.372045       -10.1239
  96   1.0000      -0.371108       -10.0984
  97   1.0000      -0.370104       -10.0710
  98   1.0000      -0.368280       -10.0214
  99   1.0000      -0.364395        -9.9157
 100   1.0000      -0.363762        -9.8985
 101   1.0000      -0.363613        -9.8944
 102   1.0000      -0.363488        -9.8910
 103   1.0000      -0.362702        -9.8696
 104   1.0000      -0.357196        -9.7198
 105   1.0000      -0.356785        -9.7086
 106   1.0000      -0.354458        -9.6453
 107   1.0000      -0.353824        -9.6280
 108   1.0000      -0.352121        -9.5817
 109   1.0000      -0.351723        -9.5709
 110   1.0000      -0.350929        -9.5493
 111   1.0000      -0.346934        -9.4405
 112   1.0000      -0.344561        -9.3760
 113   1.0000      -0.344322        -9.3695
 114   1.0000      -0.342509        -9.3202
 115   1.0000      -0.332503        -9.0479
 116   1.0000      -0.327448        -8.9103
 117   1.0000      -0.320057        -8.7092
 118   1.0000      -0.318990        -8.6802
 119   1.0000      -0.308984        -8.4079
 120   1.0000      -0.296984        -8.0813
 121   1.0000      -0.245258        -6.6738
 122   1.0000      -0.240873        -6.5545
 123   1.0000      -0.221409        -6.0249
 124   1.0000      -0.189628        -5.1601
 125   0.0000      -0.087849        -2.3905
 126   0.0000      -0.074775        -2.0347
 127   0.0000      -0.069210        -1.8833
 128   0.0000      -0.049487        -1.3466
 129   0.0000      -0.045144        -1.2284

MULLIKEN ATOMIC CHARGES AND SPIN POPULATIONS
--------------------------------------------
   0 Au:    0.016935   -0.005757
   1 Au:    0.017638   -0.005940
   2 Au:    0.291364    0.040836
   3 Au:    0.096193   -0.266151
   4 Au:    0.291142    0.040622
   5 Au:    0.096493   -0.266540
   6 Au:    0.150253   -0.210810
   7 Au:    0.150009   -0.211264
   8 Au:    0.252231   -0.071452
   9 Au:    0.095365   -0.266396
  10 Au:    0.252685   -0.071419
  11 Au:    0.096631   -0.266244
  12 Mn:   -1.806938    4.560515
Sum of atomic charges         :   -0.0000000

LOEWDIN ATOMIC CHARGES AND SPIN POPULATIONS
-------------------------------------------
   0 Au:   -0.005176   -0.026217
   1 Au:   -0.004896   -0.026278
   2 Au:    0.103085   -0.012721
   3 Au:   -0.009797   -0.158106
   4 Au:    0.102808   -0.013045
   5 Au:   -0.009639   -0.158138
   6 Au:    0.010752   -0.185660
   7 Au:    0.010757   -0.186083
   8 Au:    0.058855   -0.183675
   9 Au:   -0.010011   -0.158183
  10 Au:    0.058816   -0.183763
  11 Au:   -0.009998   -0.157906
  12 Mn:   -0.295556    4.449774

  Mayer bond orders larger than 0.100000
B(  0-Au,  1-Au) :   0.4536 B(  0-Au,  4-Au) :   0.3725 B(  0-Au, 12-Mn) :   0.5616
B(  1-Au,  2-Au) :   0.3713 B(  1-Au, 12-Mn) :   0.5619 B(  2-Au,  9-Au) :   0.3045
B(  2-Au, 11-Au) :   0.3039 B(  3-Au,  4-Au) :   0.3043 B(  3-Au,  5-Au) :   0.1229
B(  3-Au,  6-Au) :   0.1857 B(  3-Au,  8-Au) :   0.3011 B(  3-Au, 12-Mn) :   0.3340
B(  4-Au,  5-Au) :   0.3040 B(  5-Au,  6-Au) :   0.1849 B(  5-Au, 10-Au) :   0.3008
B(  5-Au, 12-Mn) :   0.3352 B(  6-Au,  7-Au) :   0.1038 B(  6-Au,  8-Au) :   0.1259
B(  6-Au, 10-Au) :   0.1266 B(  6-Au, 12-Mn) :   0.4727 B(  7-Au,  8-Au) :   0.1264
B(  7-Au,  9-Au) :   0.1852 B(  7-Au, 10-Au) :   0.1260 B(  7-Au, 11-Au) :   0.1850
B(  7-Au, 12-Mn) :   0.4717 B(  8-Au, 11-Au) :   0.3013 B(  8-Au, 12-Mn) :   0.4579
B(  9-Au, 10-Au) :   0.3011 B(  9-Au, 11-Au) :   0.1237 B(  9-Au, 12-Mn) :   0.3346
B( 10-Au, 12-Mn) :   0.4583 B( 11-Au, 12-Mn) :   0.3350

MP2 TOTAL ENERGY:    -2777.851921703 Eh
FINAL SINGLE POINT ENERGY     -2777.851921703473

DIPOLE MOMENT
-------------
                                X             Y             Z
Electronic contribution:     -0.37325       0.36497       1.46848
Nuclear contribution   :      0.36442      -0.35543      -1.43425
                        -----------------------------------------
Total Dipole Moment    :     -0.00883       0.00955       0.03424
                        -----------------------------------------
Magnitude (a.u.)       :      0.03662
Magnitude (Debye)      :      0.09309

Rotational constants in cm-1:     0.001746     0.001047     0.000958
Rotational constants in MHz :    52.342186    31.390193    28.725520

                             ****ORCA TERMINATED NORMALLY****
TOTAL RUN TIME: 0 days 0 hours 30 minutes 16 seconds 645 msec
