                         Program Version 5.0.3 -  RELEASE  -
|  1> !PBE def2-TZVP VERYSLOWCONV
|  2> !KDIIS
|  3>
|  4> %scf
|  5>   AutoTRAHIter 200
|  6>   maxiter 400
|  7> end
|  8>
|  9>
| 10> %pal nprocs 6 end
| 11>
| 12> *xyzfile 0 6 pbe.xyz
| 13>
| 14> $new_job
| 15>
| 16> !PBE def2-TZVP VERYSLOWCONV
| 17> !KDIIS
| 18>
| 19> %scf
| 20>   AutoTRAHIter 200
| 21>   maxiter 400
| 22> end
| 23>
| 24>
| 25> %pal nprocs 6 end
| 26>
| 27> *xyzfile 0 4 pbe.xyz
| 28>
| 29>
| 30>
| 31>
| 32>
| 33>                          ****END OF INPUT****
 Total Charge           Charge          ....    0
 Multiplicity           Mult            ....    6
 Number of Electrons    NEL             ....  253
FINAL SINGLE POINT ENERGY     -2780.700539670418

CARTESIAN COORDINATES (ANGSTROEM)
---------------------------------
  Au     9.244805    6.943356    6.019619
  Au     6.718053    7.250413    5.287987
  Au     4.055270    7.764955    5.376700
  Au     9.323203    5.814004    8.859157
  Au    11.494314    6.852477    7.532431
  Au     9.908348    9.004264    8.173069
  Au     8.512599    7.997079   10.311913
  Au     5.291929    8.388183    9.384256
  Au     6.687267    5.888417    9.613627
  Au     5.492601    9.542651    6.901492
  Au     7.468358   10.138520    8.708064
  Au     4.909358    6.355975    7.578373
  Mn     7.435525    7.651922    7.772803

 Multiplicity           Mult            ....    4
 Number of Electrons    NEL             ....  253
 Basis Dimension        Dim             ....  525

ORBITAL ENERGIES
----------------
                 SPIN UP ORBITALS
  NO   OCC          E(Eh)            E(eV)
   0   1.0000    -234.195952     -6372.7958
   1   1.0000     -26.891308      -731.7497
   2   1.0000     -23.041251      -626.9843
   3   1.0000     -23.040324      -626.9591
   4   1.0000     -23.038292      -626.9038
   5   1.0000      -4.029294      -109.6427
   6   1.0000      -4.029274      -109.6421
   7   1.0000      -4.025242      -109.5324
   8   1.0000      -4.024970      -109.5250
   9   1.0000      -4.023642      -109.4889
  10   1.0000      -4.023565      -109.4868
  11   1.0000      -4.023533      -109.4859
  12   1.0000      -4.023471      -109.4842
  13   1.0000      -4.021187      -109.4221
  14   1.0000      -4.021158      -109.4213
  15   1.0000      -4.020197      -109.3951
  16   1.0000      -4.020196      -109.3951
  17   1.0000      -3.098820       -84.3232
  18   1.0000      -2.246293       -61.1247
  19   1.0000      -2.245453       -61.1019
  20   1.0000      -2.245399       -61.1004
  21   1.0000      -2.244536       -61.0769
  22   1.0000      -2.244521       -61.0765
  23   1.0000      -2.241310       -60.9891
  24   1.0000      -2.241049       -60.9820
  25   1.0000      -2.240669       -60.9717
  26   1.0000      -2.240162       -60.9579
  27   1.0000      -2.239780       -60.9475
  28   1.0000      -2.239451       -60.9385
  29   1.0000      -2.238948       -60.9249
  30   1.0000      -2.238537       -60.9137
  31   1.0000      -2.238424       -60.9106
  32   1.0000      -2.237248       -60.8786
  33   1.0000      -2.237095       -60.8744
  34   1.0000      -2.236384       -60.8551
  35   1.0000      -2.236279       -60.8522
  36   1.0000      -2.235500       -60.8311
  37   1.0000      -2.235461       -60.8300
  38   1.0000      -2.235027       -60.8182
  39   1.0000      -2.234718       -60.8098
  40   1.0000      -2.234693       -60.8091
  41   1.0000      -2.234482       -60.8034
  42   1.0000      -2.233169       -60.7676
  43   1.0000      -2.233071       -60.7650
  44   1.0000      -2.232292       -60.7437
  45   1.0000      -2.232257       -60.7428
  46   1.0000      -2.231917       -60.7336
  47   1.0000      -2.231891       -60.7328
  48   1.0000      -2.230934       -60.7068
  49   1.0000      -2.230858       -60.7047
  50   1.0000      -2.230752       -60.7019
  51   1.0000      -2.230441       -60.6934
  52   1.0000      -2.230092       -60.6839
  53   1.0000      -2.230046       -60.6826
  54   1.0000      -2.004241       -54.5382
  55   1.0000      -2.000931       -54.4481
  56   1.0000      -1.999078       -54.3977
  57   1.0000      -0.420698       -11.4478
  58   1.0000      -0.383900       -10.4465
  59   1.0000      -0.379907       -10.3378
  60   1.0000      -0.376219       -10.2374
  61   1.0000      -0.368886       -10.0379
  62   1.0000      -0.368313       -10.0223
  63   1.0000      -0.367355        -9.9963
  64   1.0000      -0.361381        -9.8337
  65   1.0000      -0.346897        -9.4396
  66   1.0000      -0.344673        -9.3790
  67   1.0000      -0.342737        -9.3264
  68   1.0000      -0.340746        -9.2722
  69   1.0000      -0.339023        -9.2253
  70   1.0000      -0.337793        -9.1918
  71   1.0000      -0.336850        -9.1661
  72   1.0000      -0.331731        -9.0269
  73   1.0000      -0.328624        -8.9423
  74   1.0000      -0.327804        -8.9200
  75   1.0000      -0.327745        -8.9184
  76   1.0000      -0.326604        -8.8873
  77   1.0000      -0.324050        -8.8178
  78   1.0000      -0.321640        -8.7523
  79   1.0000      -0.318342        -8.6625
  80   1.0000      -0.317966        -8.6523
  81   1.0000      -0.316210        -8.6045
  82   1.0000      -0.314309        -8.5528
  83   1.0000      -0.309012        -8.4086
  84   1.0000      -0.299339        -8.1454
  85   1.0000      -0.298776        -8.1301
  86   1.0000      -0.296290        -8.0625
  87   1.0000      -0.292416        -7.9570
  88   1.0000      -0.290897        -7.9157
  89   1.0000      -0.289713        -7.8835
  90   1.0000      -0.288285        -7.8446
  91   1.0000      -0.283796        -7.7225
  92   1.0000      -0.281885        -7.6705
  93   1.0000      -0.279276        -7.5995
  94   1.0000      -0.278352        -7.5744
  95   1.0000      -0.277625        -7.5546
  96   1.0000      -0.275865        -7.5067
  97   1.0000      -0.275075        -7.4852
  98   1.0000      -0.271988        -7.4012
  99   1.0000      -0.271467        -7.3870
 100   1.0000      -0.270066        -7.3489
 101   1.0000      -0.268201        -7.2981
 102   1.0000      -0.268095        -7.2952
 103   1.0000      -0.265040        -7.2121
 104   1.0000      -0.262983        -7.1561
 105   1.0000      -0.261279        -7.1097
 106   1.0000      -0.260803        -7.0968
 107   1.0000      -0.258417        -7.0319
 108   1.0000      -0.255963        -6.9651
 109   1.0000      -0.255944        -6.9646
 110   1.0000      -0.255686        -6.9576
 111   1.0000      -0.255009        -6.9391
 112   1.0000      -0.254546        -6.9265
 113   1.0000      -0.252311        -6.8657
 114   1.0000      -0.249378        -6.7859
 115   1.0000      -0.247911        -6.7460
 116   1.0000      -0.246457        -6.7064
 117   1.0000      -0.244821        -6.6619
 118   1.0000      -0.242686        -6.6038
 119   1.0000      -0.242541        -6.5999
 120   1.0000      -0.239397        -6.5143
 121   1.0000      -0.236163        -6.4263
 122   1.0000      -0.232449        -6.3253
 123   1.0000      -0.231055        -6.2873
 124   1.0000      -0.228709        -6.2235
 125   1.0000      -0.228665        -6.2223
 126   1.0000      -0.213445        -5.8081
 127   1.0000      -0.201025        -5.4702
 128   0.0000      -0.184190        -5.0121
 129   0.0000      -0.157419        -4.2836
 130   0.0000      -0.142030        -3.8648
 131   0.0000      -0.134003        -3.6464
 132   0.0000      -0.131784        -3.5860

                 SPIN DOWN ORBITALS
  NO   OCC          E(Eh)            E(eV)
   0   1.0000    -234.195239     -6372.7764
   1   1.0000     -26.826998      -729.9997
   2   1.0000     -22.992172      -625.6488
   3   1.0000     -22.991613      -625.6336
   4   1.0000     -22.989544      -625.5773
   5   1.0000      -4.028837      -109.6302
   6   1.0000      -4.028816      -109.6297
   7   1.0000      -4.024161      -109.5030
   8   1.0000      -4.023890      -109.4956
   9   1.0000      -4.023626      -109.4884
  10   1.0000      -4.023551      -109.4864
  11   1.0000      -4.023520      -109.4855
  12   1.0000      -4.023462      -109.4840
  13   1.0000      -4.021642      -109.4345
  14   1.0000      -4.021618      -109.4338
  15   1.0000      -4.020577      -109.4055
  16   1.0000      -4.020574      -109.4054
  17   1.0000      -2.941195       -80.0340
  18   1.0000      -2.245174       -61.0943
  19   1.0000      -2.245109       -61.0925
  20   1.0000      -2.245105       -61.0924
  21   1.0000      -2.243589       -61.0512
  22   1.0000      -2.243574       -61.0508
  23   1.0000      -2.240825       -60.9759
  24   1.0000      -2.240516       -60.9675
  25   1.0000      -2.240459       -60.9660
  26   1.0000      -2.239679       -60.9448
  27   1.0000      -2.239572       -60.9418
  28   1.0000      -2.238620       -60.9159
  29   1.0000      -2.238375       -60.9093
  30   1.0000      -2.238164       -60.9035
  31   1.0000      -2.237947       -60.8976
  32   1.0000      -2.236863       -60.8681
  33   1.0000      -2.236653       -60.8624
  34   1.0000      -2.236359       -60.8544
  35   1.0000      -2.236050       -60.8460
  36   1.0000      -2.235346       -60.8268
  37   1.0000      -2.235309       -60.8258
  38   1.0000      -2.235218       -60.8234
  39   1.0000      -2.235061       -60.8191
  40   1.0000      -2.234704       -60.8094
  41   1.0000      -2.234496       -60.8037
  42   1.0000      -2.233329       -60.7720
  43   1.0000      -2.233228       -60.7692
  44   1.0000      -2.232720       -60.7554
  45   1.0000      -2.232691       -60.7546
  46   1.0000      -2.232427       -60.7474
  47   1.0000      -2.232399       -60.7467
  48   1.0000      -2.231446       -60.7207
  49   1.0000      -2.231351       -60.7182
  50   1.0000      -2.230495       -60.6949
  51   1.0000      -2.230430       -60.6931
  52   1.0000      -2.230417       -60.6927
  53   1.0000      -2.229912       -60.6790
  54   1.0000      -1.848378       -50.2969
  55   1.0000      -1.847263       -50.2666
  56   1.0000      -1.844484       -50.1910
  57   1.0000      -0.415225       -11.2989
  58   1.0000      -0.383255       -10.4289
  59   1.0000      -0.378954       -10.3119
  60   1.0000      -0.374739       -10.1972
  61   1.0000      -0.365102        -9.9349
  62   1.0000      -0.363733        -9.8977
  63   1.0000      -0.363403        -9.8887
  64   1.0000      -0.357591        -9.7305
  65   1.0000      -0.343693        -9.3524
  66   1.0000      -0.343498        -9.3471
  67   1.0000      -0.341926        -9.3043
  68   1.0000      -0.341768        -9.3000
  69   1.0000      -0.339048        -9.2260
  70   1.0000      -0.338554        -9.2125
  71   1.0000      -0.333239        -9.0679
  72   1.0000      -0.332603        -9.0506
  73   1.0000      -0.327586        -8.9141
  74   1.0000      -0.326809        -8.8929
  75   1.0000      -0.325560        -8.8589
  76   1.0000      -0.323157        -8.7935
  77   1.0000      -0.320798        -8.7294
  78   1.0000      -0.317820        -8.6483
  79   1.0000      -0.317733        -8.6460
  80   1.0000      -0.315480        -8.5846
  81   1.0000      -0.309976        -8.4349
  82   1.0000      -0.307944        -8.3796
  83   1.0000      -0.302950        -8.2437
  84   1.0000      -0.300099        -8.1661
  85   1.0000      -0.296566        -8.0700
  86   1.0000      -0.295712        -8.0467
  87   1.0000      -0.292499        -7.9593
  88   1.0000      -0.289826        -7.8866
  89   1.0000      -0.289227        -7.8703
  90   1.0000      -0.285964        -7.7815
  91   1.0000      -0.282184        -7.6786
  92   1.0000      -0.280614        -7.6359
  93   1.0000      -0.278546        -7.5796
  94   1.0000      -0.278444        -7.5768
  95   1.0000      -0.277878        -7.5615
  96   1.0000      -0.274477        -7.4689
  97   1.0000      -0.273583        -7.4446
  98   1.0000      -0.272351        -7.4110
  99   1.0000      -0.271085        -7.3766
 100   1.0000      -0.270998        -7.3742
 101   1.0000      -0.268426        -7.3042
 102   1.0000      -0.268394        -7.3034
 103   1.0000      -0.266933        -7.2636
 104   1.0000      -0.262204        -7.1349
 105   1.0000      -0.261600        -7.1185
 106   1.0000      -0.259812        -7.0699
 107   1.0000      -0.258860        -7.0439
 108   1.0000      -0.256514        -6.9801
 109   1.0000      -0.256413        -6.9774
 110   1.0000      -0.256269        -6.9734
 111   1.0000      -0.255824        -6.9613
 112   1.0000      -0.253975        -6.9110
 113   1.0000      -0.253128        -6.8880
 114   1.0000      -0.249255        -6.7826
 115   1.0000      -0.247364        -6.7311
 116   1.0000      -0.244411        -6.6508
 117   1.0000      -0.241453        -6.5703
 118   1.0000      -0.238043        -6.4775
 119   1.0000      -0.236994        -6.4489
 120   1.0000      -0.232667        -6.3312
 121   1.0000      -0.221852        -6.0369
 122   1.0000      -0.213370        -5.8061
 123   1.0000      -0.200397        -5.4531
 124   1.0000      -0.176431        -4.8009
 125   0.0000      -0.153528        -4.1777
 126   0.0000      -0.142752        -3.8845
 127   0.0000      -0.138660        -3.7731
 128   0.0000      -0.125786        -3.4228
 129   0.0000      -0.120475        -3.2783

MULLIKEN ATOMIC CHARGES AND SPIN POPULATIONS
--------------------------------------------
   0 Au:    0.055982    0.043445
   1 Au:    0.056324    0.043319
   2 Au:    0.346029    0.026862
   3 Au:    0.108289   -0.177641
   4 Au:    0.345780    0.026603
   5 Au:    0.109160   -0.177833
   6 Au:    0.191360   -0.157416
   7 Au:    0.191482   -0.157960
   8 Au:    0.297288   -0.041512
   9 Au:    0.107940   -0.177504
  10 Au:    0.297571   -0.041492
  11 Au:    0.109365   -0.177276
  12 Mn:   -2.216569    3.968405
Sum of atomic charges         :   -0.0000000

LOEWDIN ATOMIC CHARGES AND SPIN POPULATIONS
-------------------------------------------
   0 Au:    0.034686    0.019882
   1 Au:    0.034925    0.019878
   2 Au:    0.087179   -0.015091
   3 Au:    0.009525   -0.108984
   4 Au:    0.086915   -0.015417
   5 Au:    0.009814   -0.108904
   6 Au:    0.036598   -0.140479
   7 Au:    0.036661   -0.140910
   8 Au:    0.085406   -0.113897
   9 Au:    0.009490   -0.108833
  10 Au:    0.085367   -0.114056
  11 Au:    0.009579   -0.108567
  12 Mn:   -0.526147    3.935379

  Mayer bond orders larger than 0.100000
B(  0-Au,  1-Au) :   0.4749 B(  0-Au,  3-Au) :   0.1187 B(  0-Au,  4-Au) :   0.3845
B(  0-Au,  5-Au) :   0.1189 B(  0-Au, 12-Mn) :   0.5870 B(  1-Au,  2-Au) :   0.3835
B(  1-Au,  9-Au) :   0.1181 B(  1-Au, 11-Au) :   0.1190 B(  1-Au, 12-Mn) :   0.5873
B(  2-Au,  9-Au) :   0.3371 B(  2-Au, 11-Au) :   0.3360 B(  3-Au,  4-Au) :   0.3366
B(  3-Au,  5-Au) :   0.1207 B(  3-Au,  6-Au) :   0.2381 B(  3-Au,  8-Au) :   0.3190
B(  3-Au, 12-Mn) :   0.4039 B(  4-Au,  5-Au) :   0.3363 B(  5-Au,  6-Au) :   0.2370
B(  5-Au, 10-Au) :   0.3187 B(  5-Au, 12-Mn) :   0.4053 B(  6-Au,  7-Au) :   0.1012
B(  6-Au,  8-Au) :   0.1516 B(  6-Au, 10-Au) :   0.1527 B(  6-Au, 12-Mn) :   0.5207
B(  7-Au,  8-Au) :   0.1526 B(  7-Au,  9-Au) :   0.2376 B(  7-Au, 10-Au) :   0.1521
B(  7-Au, 11-Au) :   0.2373 B(  7-Au, 12-Mn) :   0.5199 B(  8-Au, 11-Au) :   0.3191
B(  8-Au, 12-Mn) :   0.4747 B(  9-Au, 10-Au) :   0.3192 B(  9-Au, 11-Au) :   0.1215
B(  9-Au, 12-Mn) :   0.4047 B( 10-Au, 12-Mn) :   0.4747 B( 11-Au, 12-Mn) :   0.4054

FINAL SINGLE POINT ENERGY     -2780.691845662333

DIPOLE MOMENT
-------------
                                X             Y             Z
Electronic contribution:     -0.36778       0.35820       1.44403
Nuclear contribution   :      0.36442      -0.35543      -1.43425
                        -----------------------------------------
Total Dipole Moment    :     -0.00336       0.00277       0.00979
                        -----------------------------------------
Magnitude (a.u.)       :      0.01071
Magnitude (Debye)      :      0.02723

Rotational constants in cm-1:     0.001746     0.001047     0.000958
Rotational constants in MHz :    52.342186    31.390193    28.725520

                             ****ORCA TERMINATED NORMALLY****
TOTAL RUN TIME: 0 days 0 hours 4 minutes 13 seconds 193 msec
