                         Program Version 5.0.3 -  RELEASE  -
|  1> !R2SCAN def2-TZVP VERYSLOWCONV
|  2> !KDIIS
|  3> %scf
|  4>   AutoTRAHIter 200
|  5>   maxiter 400
|  6> end
|  7>
|  8> %pal nprocs 6 end
|  9>
| 10> *xyzfile 0 6 pbe.xyz
| 11>
| 12> $new_job
| 13>
| 14> !R2SCAN def2-TZVP VERYSLOWCONV
| 15> !KDIIS
| 16> %scf
| 17>   AutoTRAHIter 200
| 18>   maxiter 400
| 19> end
| 20>
| 21>
| 22> %pal nprocs 6 end
| 23>
| 24> *xyzfile 0 4 pbe.xyz
| 25>
| 26>
| 27>
| 28>
| 29>
| 30>                          ****END OF INPUT****
 Total Charge           Charge          ....    0
 Multiplicity           Mult            ....    6
 Number of Electrons    NEL             ....  253
FINAL SINGLE POINT ENERGY     -2781.152611878845

CARTESIAN COORDINATES (ANGSTROEM)
---------------------------------
  Au     9.244805    6.943356    6.019619
  Au     6.718053    7.250413    5.287987
  Au     4.055270    7.764955    5.376700
  Au     9.323203    5.814004    8.859157
  Au    11.494314    6.852477    7.532431
  Au     9.908348    9.004264    8.173069
  Au     8.512599    7.997079   10.311913
  Au     5.291929    8.388183    9.384256
  Au     6.687267    5.888417    9.613627
  Au     5.492601    9.542651    6.901492
  Au     7.468358   10.138520    8.708064
  Au     4.909358    6.355975    7.578373
  Mn     7.435525    7.651922    7.772803

 Multiplicity           Mult            ....    4
 Number of Electrons    NEL             ....  253
 Basis Dimension        Dim             ....  525

ORBITAL ENERGIES
----------------
                 SPIN UP ORBITALS
  NO   OCC          E(Eh)            E(eV)
   0   1.0000    -235.038397     -6395.7199
   1   1.0000     -27.217557      -740.6274
   2   1.0000     -23.265301      -633.0810
   3   1.0000     -23.264778      -633.0668
   4   1.0000     -23.263233      -633.0247
   5   1.0000      -4.121118      -112.1413
   6   1.0000      -4.121099      -112.1408
   7   1.0000      -4.116468      -112.0148
   8   1.0000      -4.116162      -112.0065
   9   1.0000      -4.114654      -111.9654
  10   1.0000      -4.114574      -111.9632
  11   1.0000      -4.114539      -111.9623
  12   1.0000      -4.114474      -111.9605
  13   1.0000      -4.112149      -111.8973
  14   1.0000      -4.112122      -111.8965
  15   1.0000      -4.111182      -111.8710
  16   1.0000      -4.111181      -111.8709
  17   1.0000      -3.238189       -88.1156
  18   1.0000      -2.310206       -62.8639
  19   1.0000      -2.309846       -62.8541
  20   1.0000      -2.309788       -62.8525
  21   1.0000      -2.309351       -62.8406
  22   1.0000      -2.309334       -62.8402
  23   1.0000      -2.305028       -62.7230
  24   1.0000      -2.304986       -62.7218
  25   1.0000      -2.304624       -62.7120
  26   1.0000      -2.304029       -62.6958
  27   1.0000      -2.303609       -62.6844
  28   1.0000      -2.303440       -62.6798
  29   1.0000      -2.303076       -62.6699
  30   1.0000      -2.302984       -62.6674
  31   1.0000      -2.302878       -62.6645
  32   1.0000      -2.301238       -62.6199
  33   1.0000      -2.300985       -62.6130
  34   1.0000      -2.300347       -62.5956
  35   1.0000      -2.300261       -62.5933
  36   1.0000      -2.299417       -62.5703
  37   1.0000      -2.299396       -62.5698
  38   1.0000      -2.298788       -62.5532
  39   1.0000      -2.298492       -62.5451
  40   1.0000      -2.298284       -62.5395
  41   1.0000      -2.297983       -62.5313
  42   1.0000      -2.297225       -62.5107
  43   1.0000      -2.297105       -62.5074
  44   1.0000      -2.296174       -62.4821
  45   1.0000      -2.296138       -62.4811
  46   1.0000      -2.295452       -62.4624
  47   1.0000      -2.295404       -62.4611
  48   1.0000      -2.295020       -62.4507
  49   1.0000      -2.294662       -62.4409
  50   1.0000      -2.294546       -62.4378
  51   1.0000      -2.294517       -62.4370
  52   1.0000      -2.293748       -62.4160
  53   1.0000      -2.293690       -62.4145
  54   1.0000      -2.096712       -57.0544
  55   1.0000      -2.094384       -56.9911
  56   1.0000      -2.093111       -56.9564
  57   1.0000      -0.427025       -11.6199
  58   1.0000      -0.390650       -10.6301
  59   1.0000      -0.387734       -10.5508
  60   1.0000      -0.385421       -10.4878
  61   1.0000      -0.380239       -10.3468
  62   1.0000      -0.379470       -10.3259
  63   1.0000      -0.376875       -10.2553
  64   1.0000      -0.371093       -10.0979
  65   1.0000      -0.358093        -9.7442
  66   1.0000      -0.356253        -9.6941
  67   1.0000      -0.352227        -9.5846
  68   1.0000      -0.350188        -9.5291
  69   1.0000      -0.349247        -9.5035
  70   1.0000      -0.347635        -9.4596
  71   1.0000      -0.346798        -9.4369
  72   1.0000      -0.341432        -9.2908
  73   1.0000      -0.339935        -9.2501
  74   1.0000      -0.338716        -9.2169
  75   1.0000      -0.337956        -9.1963
  76   1.0000      -0.336822        -9.1654
  77   1.0000      -0.333352        -9.0710
  78   1.0000      -0.331505        -9.0207
  79   1.0000      -0.329647        -8.9701
  80   1.0000      -0.327326        -8.9070
  81   1.0000      -0.327097        -8.9008
  82   1.0000      -0.323787        -8.8107
  83   1.0000      -0.318732        -8.6731
  84   1.0000      -0.310339        -8.4447
  85   1.0000      -0.308489        -8.3944
  86   1.0000      -0.305205        -8.3050
  87   1.0000      -0.301494        -8.2041
  88   1.0000      -0.300040        -8.1645
  89   1.0000      -0.298670        -8.1272
  90   1.0000      -0.297777        -8.1029
  91   1.0000      -0.293199        -7.9784
  92   1.0000      -0.289832        -7.8867
  93   1.0000      -0.289311        -7.8725
  94   1.0000      -0.287648        -7.8273
  95   1.0000      -0.286774        -7.8035
  96   1.0000      -0.285359        -7.7650
  97   1.0000      -0.285284        -7.7630
  98   1.0000      -0.280632        -7.6364
  99   1.0000      -0.279969        -7.6183
 100   1.0000      -0.278888        -7.5889
 101   1.0000      -0.276655        -7.5282
 102   1.0000      -0.276574        -7.5260
 103   1.0000      -0.273459        -7.4412
 104   1.0000      -0.271893        -7.3986
 105   1.0000      -0.270342        -7.3564
 106   1.0000      -0.270262        -7.3542
 107   1.0000      -0.267120        -7.2687
 108   1.0000      -0.264751        -7.2042
 109   1.0000      -0.264114        -7.1869
 110   1.0000      -0.263679        -7.1751
 111   1.0000      -0.262587        -7.1453
 112   1.0000      -0.262413        -7.1406
 113   1.0000      -0.261787        -7.1236
 114   1.0000      -0.260898        -7.0994
 115   1.0000      -0.258802        -7.0423
 116   1.0000      -0.257704        -7.0125
 117   1.0000      -0.254825        -6.9342
 118   1.0000      -0.254085        -6.9140
 119   1.0000      -0.252708        -6.8765
 120   1.0000      -0.252585        -6.8732
 121   1.0000      -0.243780        -6.6336
 122   1.0000      -0.243513        -6.6263
 123   1.0000      -0.238427        -6.4879
 124   1.0000      -0.237523        -6.4633
 125   1.0000      -0.234320        -6.3762
 126   1.0000      -0.217279        -5.9125
 127   1.0000      -0.204223        -5.5572
 128   0.0000      -0.183004        -4.9798
 129   0.0000      -0.154137        -4.1943
 130   0.0000      -0.137710        -3.7473
 131   0.0000      -0.129487        -3.5235
 132   0.0000      -0.127346        -3.4653

                 SPIN DOWN ORBITALS
  NO   OCC          E(Eh)            E(eV)
   0   1.0000    -235.037357     -6395.6916
   1   1.0000     -27.130738      -738.2649
   2   1.0000     -23.198672      -631.2679
   3   1.0000     -23.198025      -631.2503
   4   1.0000     -23.196756      -631.2158
   5   1.0000      -4.120684      -112.1295
   6   1.0000      -4.120663      -112.1289
   7   1.0000      -4.115374      -111.9850
   8   1.0000      -4.115068      -111.9767
   9   1.0000      -4.114879      -111.9716
  10   1.0000      -4.114801      -111.9694
  11   1.0000      -4.114769      -111.9685
  12   1.0000      -4.114709      -111.9669
  13   1.0000      -4.113017      -111.9209
  14   1.0000      -4.112995      -111.9203
  15   1.0000      -4.111607      -111.8825
  16   1.0000      -4.111603      -111.8824
  17   1.0000      -3.031044       -82.4789
  18   1.0000      -2.309376       -62.8413
  19   1.0000      -2.309294       -62.8391
  20   1.0000      -2.308757       -62.8245
  21   1.0000      -2.308249       -62.8107
  22   1.0000      -2.308221       -62.8099
  23   1.0000      -2.304801       -62.7168
  24   1.0000      -2.304401       -62.7059
  25   1.0000      -2.304159       -62.6994
  26   1.0000      -2.303398       -62.6786
  27   1.0000      -2.303140       -62.6716
  28   1.0000      -2.303130       -62.6713
  29   1.0000      -2.302889       -62.6648
  30   1.0000      -2.302221       -62.6466
  31   1.0000      -2.301953       -62.6393
  32   1.0000      -2.300867       -62.6098
  33   1.0000      -2.300587       -62.6021
  34   1.0000      -2.300459       -62.5987
  35   1.0000      -2.300133       -62.5898
  36   1.0000      -2.299357       -62.5687
  37   1.0000      -2.299271       -62.5663
  38   1.0000      -2.299156       -62.5632
  39   1.0000      -2.299096       -62.5616
  40   1.0000      -2.298374       -62.5419
  41   1.0000      -2.298053       -62.5332
  42   1.0000      -2.297462       -62.5171
  43   1.0000      -2.297317       -62.5132
  44   1.0000      -2.296847       -62.5004
  45   1.0000      -2.296804       -62.4992
  46   1.0000      -2.296103       -62.4801
  47   1.0000      -2.296078       -62.4795
  48   1.0000      -2.295449       -62.4623
  49   1.0000      -2.295338       -62.4593
  50   1.0000      -2.294527       -62.4372
  51   1.0000      -2.294220       -62.4289
  52   1.0000      -2.294127       -62.4264
  53   1.0000      -2.293975       -62.4222
  54   1.0000      -1.890113       -51.4326
  55   1.0000      -1.889232       -51.4086
  56   1.0000      -1.887483       -51.3610
  57   1.0000      -0.422230       -11.4895
  58   1.0000      -0.389721       -10.6049
  59   1.0000      -0.386744       -10.5238
  60   1.0000      -0.383093       -10.4245
  61   1.0000      -0.374445       -10.1892
  62   1.0000      -0.373024       -10.1505
  63   1.0000      -0.372170       -10.1273
  64   1.0000      -0.366351        -9.9689
  65   1.0000      -0.353518        -9.6197
  66   1.0000      -0.353464        -9.6182
  67   1.0000      -0.351694        -9.5701
  68   1.0000      -0.351526        -9.5655
  69   1.0000      -0.348600        -9.4859
  70   1.0000      -0.348396        -9.4803
  71   1.0000      -0.343363        -9.3434
  72   1.0000      -0.342589        -9.3223
  73   1.0000      -0.337731        -9.1901
  74   1.0000      -0.336325        -9.1519
  75   1.0000      -0.335294        -9.1238
  76   1.0000      -0.332858        -9.0575
  77   1.0000      -0.330650        -8.9975
  78   1.0000      -0.327719        -8.9177
  79   1.0000      -0.326472        -8.8837
  80   1.0000      -0.325115        -8.8468
  81   1.0000      -0.319510        -8.6943
  82   1.0000      -0.317095        -8.6286
  83   1.0000      -0.311595        -8.4789
  84   1.0000      -0.309399        -8.4192
  85   1.0000      -0.305326        -8.3084
  86   1.0000      -0.304185        -8.2773
  87   1.0000      -0.302475        -8.2308
  88   1.0000      -0.298879        -8.1329
  89   1.0000      -0.298448        -8.1212
  90   1.0000      -0.294565        -8.0155
  91   1.0000      -0.291235        -7.9249
  92   1.0000      -0.288660        -7.8548
  93   1.0000      -0.288048        -7.8382
  94   1.0000      -0.287653        -7.8274
  95   1.0000      -0.286926        -7.8076
  96   1.0000      -0.283565        -7.7162
  97   1.0000      -0.281925        -7.6716
  98   1.0000      -0.281083        -7.6486
  99   1.0000      -0.280243        -7.6258
 100   1.0000      -0.280019        -7.6197
 101   1.0000      -0.277150        -7.5416
 102   1.0000      -0.276738        -7.5304
 103   1.0000      -0.275856        -7.5064
 104   1.0000      -0.270320        -7.3558
 105   1.0000      -0.270210        -7.3528
 106   1.0000      -0.268084        -7.2949
 107   1.0000      -0.267289        -7.2733
 108   1.0000      -0.265209        -7.2167
 109   1.0000      -0.265071        -7.2129
 110   1.0000      -0.264864        -7.2073
 111   1.0000      -0.263657        -7.1745
 112   1.0000      -0.261622        -7.1191
 113   1.0000      -0.261564        -7.1175
 114   1.0000      -0.257228        -6.9995
 115   1.0000      -0.255274        -6.9463
 116   1.0000      -0.251455        -6.8424
 117   1.0000      -0.248920        -6.7735
 118   1.0000      -0.244877        -6.6634
 119   1.0000      -0.243933        -6.6377
 120   1.0000      -0.239808        -6.5255
 121   1.0000      -0.224531        -6.1098
 122   1.0000      -0.216200        -5.8831
 123   1.0000      -0.202209        -5.5024
 124   1.0000      -0.176979        -4.8158
 125   0.0000      -0.149450        -4.0667
 126   0.0000      -0.136043        -3.7019
 127   0.0000      -0.132396        -3.6027
 128   0.0000      -0.114804        -3.1240
 129   0.0000      -0.108154        -2.9430

MULLIKEN ATOMIC CHARGES AND SPIN POPULATIONS
--------------------------------------------
   0 Au:    0.049209    0.037530
   1 Au:    0.049400    0.037408
   2 Au:    0.299325    0.029157
   3 Au:    0.107282   -0.209909
   4 Au:    0.299044    0.028866
   5 Au:    0.108138   -0.210228
   6 Au:    0.159685   -0.194015
   7 Au:    0.159912   -0.194606
   8 Au:    0.272710   -0.051995
   9 Au:    0.106911   -0.209887
  10 Au:    0.273066   -0.051934
  11 Au:    0.108491   -0.209620
  12 Mn:   -1.993175    4.199232
Sum of atomic charges         :   -0.0000000

LOEWDIN ATOMIC CHARGES AND SPIN POPULATIONS
-------------------------------------------
   0 Au:    0.026031    0.009097
   1 Au:    0.026264    0.009102
   2 Au:    0.082660   -0.016815
   3 Au:    0.005510   -0.128130
   4 Au:    0.082398   -0.017172
   5 Au:    0.005800   -0.128089
   6 Au:    0.028546   -0.165799
   7 Au:    0.028619   -0.166252
   8 Au:    0.077893   -0.134627
   9 Au:    0.005462   -0.128029
  10 Au:    0.077881   -0.134782
  11 Au:    0.005604   -0.127714
  12 Mn:   -0.452669    4.129211

  Mayer bond orders larger than 0.100000
B(  0-Au,  1-Au) :   0.4785 B(  0-Au,  4-Au) :   0.3795 B(  0-Au, 12-Mn) :   0.5931
B(  1-Au,  2-Au) :   0.3784 B(  1-Au, 12-Mn) :   0.5936 B(  2-Au,  9-Au) :   0.3276
B(  2-Au, 11-Au) :   0.3266 B(  3-Au,  4-Au) :   0.3271 B(  3-Au,  5-Au) :   0.1044
B(  3-Au,  6-Au) :   0.2197 B(  3-Au,  8-Au) :   0.3216 B(  3-Au, 12-Mn) :   0.3753
B(  4-Au,  5-Au) :   0.3268 B(  5-Au,  6-Au) :   0.2187 B(  5-Au, 10-Au) :   0.3213
B(  5-Au, 12-Mn) :   0.3769 B(  6-Au,  7-Au) :   0.1025 B(  6-Au,  8-Au) :   0.1337
B(  6-Au, 10-Au) :   0.1349 B(  6-Au, 12-Mn) :   0.4961 B(  7-Au,  8-Au) :   0.1347
B(  7-Au,  9-Au) :   0.2191 B(  7-Au, 10-Au) :   0.1343 B(  7-Au, 11-Au) :   0.2189
B(  7-Au, 12-Mn) :   0.4954 B(  8-Au, 11-Au) :   0.3218 B(  8-Au, 12-Mn) :   0.4756
B(  9-Au, 10-Au) :   0.3218 B(  9-Au, 11-Au) :   0.1051 B(  9-Au, 12-Mn) :   0.3762
B( 10-Au, 12-Mn) :   0.4757 B( 11-Au, 12-Mn) :   0.3768

FINAL SINGLE POINT ENERGY     -2781.141938586406

DIPOLE MOMENT
-------------
                                X             Y             Z
Electronic contribution:     -0.37167       0.36193       1.45859
Nuclear contribution   :      0.36442      -0.35543      -1.43425
                        -----------------------------------------
Total Dipole Moment    :     -0.00725       0.00650       0.02435
                        -----------------------------------------
Magnitude (a.u.)       :      0.02622
Magnitude (Debye)      :      0.06664

Rotational constants in cm-1:     0.001746     0.001047     0.000958
Rotational constants in MHz :    52.342186    31.390193    28.725520

                             ****ORCA TERMINATED NORMALLY****
TOTAL RUN TIME: 0 days 0 hours 6 minutes 57 seconds 113 msec
