                         Program Version 5.0.3 -  RELEASE  -
|  1> !RI-B2PLYP def2-TZVP def2-TZVP/C
|  2> !RIJCOSX VERYSLOWCONV
|  3>
|  4> %scf
|  5>   AutoTRAHIter 200
|  6>   maxiter 400
|  7> end
|  8>
|  9>
| 10> %pal nprocs 6 end
| 11>
| 12> *xyzfile 0 6 pbe.xyz
| 13>
| 14> $new_job
| 15>
| 16> !RI-B2PLYP def2-TZVP def2-TZVP/C
| 17> !RIJCOSX VERYSLOWCONV
| 18>
| 19> %scf
| 20>   AutoTRAHIter 200
| 21>   maxiter 400
| 22> end
| 23>
| 24>
| 25> %pal nprocs 6 end
| 26>
| 27> *xyzfile 0 4 pbe.xyz
| 28>
| 29>
| 30>
| 31>
| 32>
| 33>                          ****END OF INPUT****
 Total Charge           Charge          ....    0
 Multiplicity           Mult            ....    6
 Number of Electrons    NEL             ....  291
MP2 TOTAL ENERGY:    -3049.056947270 Eh
FINAL SINGLE POINT ENERGY     -3049.056947270471

CARTESIAN COORDINATES (ANGSTROEM)
---------------------------------
  Au     6.325335    7.391827    9.838669
  Au    10.556593    9.405341    9.467113
  Au     9.189663    7.078552    8.983180
  Au     9.786278    9.203624    6.830432
  Au     7.875629    9.756794    9.499126
  Au     7.416584   10.692633    6.779212
  Au     5.351721    9.799354    8.525262
  Au     3.126037    8.862164    7.310100
  Au     7.171486    5.417867    7.958444
  Au     4.738814    6.653025    7.652980
  Au     7.970837    8.669067    4.841815
  Au     9.184331    6.425365    6.243661
  Au     5.289380    8.905788    5.628248
  Au     6.422448    6.348046    5.306814
  Mn     7.217861    8.060074    7.370086

 Multiplicity           Mult            ....    4
 Number of Electrons    NEL             ....  291
 Basis Dimension        Dim             ....  605

ORBITAL ENERGIES
----------------
                 SPIN UP ORBITALS
  NO   OCC          E(Eh)            E(eV)
   0   1.0000    -237.621085     -6465.9985
   1   1.0000     -28.122734      -765.2585
   2   1.0000     -24.041100      -654.1916
   3   1.0000     -24.040382      -654.1721
   4   1.0000     -24.040250      -654.1685
   5   1.0000      -4.403957      -119.8378
   6   1.0000      -4.403939      -119.8373
   7   1.0000      -4.402792      -119.8061
   8   1.0000      -4.402738      -119.8046
   9   1.0000      -4.402046      -119.7858
  10   1.0000      -4.401768      -119.7782
  11   1.0000      -4.397466      -119.6611
  12   1.0000      -4.397463      -119.6611
  13   1.0000      -4.392915      -119.5373
  14   1.0000      -4.392860      -119.5358
  15   1.0000      -4.391278      -119.4928
  16   1.0000      -4.391203      -119.4907
  17   1.0000      -4.388531      -119.4180
  18   1.0000      -4.388481      -119.4166
  19   1.0000      -3.600372       -97.9711
  20   1.0000      -2.525671       -68.7270
  21   1.0000      -2.525319       -68.7174
  22   1.0000      -2.525230       -68.7150
  23   1.0000      -2.523673       -68.6726
  24   1.0000      -2.523640       -68.6717
  25   1.0000      -2.521750       -68.6203
  26   1.0000      -2.521669       -68.6181
  27   1.0000      -2.520547       -68.5876
  28   1.0000      -2.520515       -68.5867
  29   1.0000      -2.520148       -68.5767
  30   1.0000      -2.519936       -68.5710
  31   1.0000      -2.519565       -68.5609
  32   1.0000      -2.518932       -68.5436
  33   1.0000      -2.518802       -68.5401
  34   1.0000      -2.518050       -68.5196
  35   1.0000      -2.518032       -68.5191
  36   1.0000      -2.517690       -68.5098
  37   1.0000      -2.517326       -68.4999
  38   1.0000      -2.516310       -68.4723
  39   1.0000      -2.515960       -68.4627
  40   1.0000      -2.513828       -68.4047
  41   1.0000      -2.513796       -68.4039
  42   1.0000      -2.512858       -68.3783
  43   1.0000      -2.512307       -68.3633
  44   1.0000      -2.512062       -68.3567
  45   1.0000      -2.511970       -68.3542
  46   1.0000      -2.510913       -68.3254
  47   1.0000      -2.510649       -68.3182
  48   1.0000      -2.509853       -68.2966
  49   1.0000      -2.509761       -68.2941
  50   1.0000      -2.508126       -68.2496
  51   1.0000      -2.507590       -68.2350
  52   1.0000      -2.507396       -68.2297
  53   1.0000      -2.506725       -68.2114
  54   1.0000      -2.506549       -68.2067
  55   1.0000      -2.506359       -68.2015
  56   1.0000      -2.505940       -68.1901
  57   1.0000      -2.505220       -68.1705
  58   1.0000      -2.504248       -68.1441
  59   1.0000      -2.504159       -68.1416
  60   1.0000      -2.502943       -68.1086
  61   1.0000      -2.502892       -68.1072
  62   1.0000      -2.403147       -65.3930
  63   1.0000      -2.401618       -65.3513
  64   1.0000      -2.401403       -65.3455
  65   1.0000      -0.521812       -14.1992
  66   1.0000      -0.519421       -14.1342
  67   1.0000      -0.516931       -14.0664
  68   1.0000      -0.515936       -14.0393
  69   1.0000      -0.512058       -13.9338
  70   1.0000      -0.510692       -13.8966
  71   1.0000      -0.473114       -12.8741
  72   1.0000      -0.466595       -12.6967
  73   1.0000      -0.465611       -12.6699
  74   1.0000      -0.465009       -12.6535
  75   1.0000      -0.457011       -12.4359
  76   1.0000      -0.456215       -12.4143
  77   1.0000      -0.455537       -12.3958
  78   1.0000      -0.454258       -12.3610
  79   1.0000      -0.451945       -12.2980
  80   1.0000      -0.451118       -12.2755
  81   1.0000      -0.450274       -12.2526
  82   1.0000      -0.444523       -12.0961
  83   1.0000      -0.442068       -12.0293
  84   1.0000      -0.440987       -11.9999
  85   1.0000      -0.440269       -11.9803
  86   1.0000      -0.436225       -11.8703
  87   1.0000      -0.435111       -11.8400
  88   1.0000      -0.433557       -11.7977
  89   1.0000      -0.432930       -11.7806
  90   1.0000      -0.429447       -11.6858
  91   1.0000      -0.425742       -11.5850
  92   1.0000      -0.425235       -11.5712
  93   1.0000      -0.425126       -11.5683
  94   1.0000      -0.417858       -11.3705
  95   1.0000      -0.416130       -11.3235
  96   1.0000      -0.416005       -11.3201
  97   1.0000      -0.412508       -11.2249
  98   1.0000      -0.411291       -11.1918
  99   1.0000      -0.408695       -11.1212
 100   1.0000      -0.407161       -11.0794
 101   1.0000      -0.402774       -10.9600
 102   1.0000      -0.399759       -10.8780
 103   1.0000      -0.396352       -10.7853
 104   1.0000      -0.395538       -10.7631
 105   1.0000      -0.385428       -10.4880
 106   1.0000      -0.384856       -10.4725
 107   1.0000      -0.377281       -10.2663
 108   1.0000      -0.374788       -10.1985
 109   1.0000      -0.374774       -10.1981
 110   1.0000      -0.373809       -10.1719
 111   1.0000      -0.371952       -10.1213
 112   1.0000      -0.371630       -10.1126
 113   1.0000      -0.369390       -10.0516
 114   1.0000      -0.367854       -10.0098
 115   1.0000      -0.367186        -9.9916
 116   1.0000      -0.366301        -9.9676
 117   1.0000      -0.365700        -9.9512
 118   1.0000      -0.362970        -9.8769
 119   1.0000      -0.362482        -9.8636
 120   1.0000      -0.361513        -9.8373
 121   1.0000      -0.360571        -9.8116
 122   1.0000      -0.358738        -9.7618
 123   1.0000      -0.358454        -9.7540
 124   1.0000      -0.357227        -9.7206
 125   1.0000      -0.357068        -9.7163
 126   1.0000      -0.355167        -9.6646
 127   1.0000      -0.354951        -9.6587
 128   1.0000      -0.351843        -9.5741
 129   1.0000      -0.351286        -9.5590
 130   1.0000      -0.348672        -9.4878
 131   1.0000      -0.347886        -9.4665
 132   1.0000      -0.344059        -9.3623
 133   1.0000      -0.343430        -9.3452
 134   1.0000      -0.343412        -9.3447
 135   1.0000      -0.340165        -9.2563
 136   1.0000      -0.338941        -9.2230
 137   1.0000      -0.334853        -9.1118
 138   1.0000      -0.328041        -8.9265
 139   1.0000      -0.324033        -8.8174
 140   1.0000      -0.321098        -8.7375
 141   1.0000      -0.314806        -8.5663
 142   1.0000      -0.305795        -8.3211
 143   1.0000      -0.297219        -8.0877
 144   1.0000      -0.251104        -6.8329
 145   1.0000      -0.222988        -6.0678
 146   1.0000      -0.205481        -5.5914
 147   0.0000      -0.118880        -3.2349
 148   0.0000      -0.115652        -3.1471
 149   0.0000      -0.081241        -2.2107
 150   0.0000      -0.074008        -2.0139
 151   0.0000      -0.048098        -1.3088

                 SPIN DOWN ORBITALS
  NO   OCC          E(Eh)            E(eV)
   0   1.0000    -237.619056     -6465.9432
   1   1.0000     -28.022517      -762.5314
   2   1.0000     -23.949023      -651.6860
   3   1.0000     -23.948514      -651.6722
   4   1.0000     -23.948101      -651.6610
   5   1.0000      -4.404164      -119.8434
   6   1.0000      -4.404147      -119.8429
   7   1.0000      -4.402973      -119.8110
   8   1.0000      -4.402927      -119.8097
   9   1.0000      -4.401981      -119.7840
  10   1.0000      -4.401700      -119.7763
  11   1.0000      -4.398043      -119.6768
  12   1.0000      -4.398033      -119.6766
  13   1.0000      -4.393110      -119.5426
  14   1.0000      -4.393051      -119.5410
  15   1.0000      -4.391679      -119.5037
  16   1.0000      -4.391604      -119.5016
  17   1.0000      -4.388898      -119.4280
  18   1.0000      -4.388846      -119.4266
  19   1.0000      -3.318863       -90.3109
  20   1.0000      -2.525181       -68.7137
  21   1.0000      -2.524579       -68.6973
  22   1.0000      -2.524547       -68.6964
  23   1.0000      -2.522754       -68.6476
  24   1.0000      -2.522712       -68.6465
  25   1.0000      -2.520493       -68.5861
  26   1.0000      -2.520437       -68.5846
  27   1.0000      -2.520174       -68.5774
  28   1.0000      -2.520061       -68.5743
  29   1.0000      -2.519652       -68.5632
  30   1.0000      -2.519645       -68.5630
  31   1.0000      -2.519394       -68.5562
  32   1.0000      -2.518437       -68.5302
  33   1.0000      -2.518288       -68.5261
  34   1.0000      -2.517873       -68.5148
  35   1.0000      -2.517630       -68.5082
  36   1.0000      -2.517225       -68.4972
  37   1.0000      -2.516871       -68.4875
  38   1.0000      -2.516470       -68.4766
  39   1.0000      -2.516278       -68.4714
  40   1.0000      -2.513939       -68.4078
  41   1.0000      -2.513902       -68.4068
  42   1.0000      -2.513232       -68.3885
  43   1.0000      -2.512702       -68.3741
  44   1.0000      -2.512166       -68.3595
  45   1.0000      -2.512024       -68.3557
  46   1.0000      -2.510622       -68.3175
  47   1.0000      -2.510326       -68.3094
  48   1.0000      -2.509206       -68.2790
  49   1.0000      -2.509078       -68.2755
  50   1.0000      -2.508776       -68.2673
  51   1.0000      -2.508530       -68.2606
  52   1.0000      -2.508064       -68.2479
  53   1.0000      -2.507386       -68.2294
  54   1.0000      -2.507210       -68.2246
  55   1.0000      -2.506878       -68.2156
  56   1.0000      -2.506518       -68.2058
  57   1.0000      -2.505650       -68.1822
  58   1.0000      -2.504448       -68.1495
  59   1.0000      -2.504346       -68.1467
  60   1.0000      -2.503804       -68.1320
  61   1.0000      -2.503746       -68.1304
  62   1.0000      -2.081207       -56.6325
  63   1.0000      -2.079885       -56.5965
  64   1.0000      -2.078836       -56.5680
  65   1.0000      -0.515226       -14.0200
  66   1.0000      -0.476742       -12.9728
  67   1.0000      -0.471558       -12.8317
  68   1.0000      -0.471242       -12.8232
  69   1.0000      -0.468610       -12.7515
  70   1.0000      -0.467941       -12.7333
  71   1.0000      -0.464055       -12.6276
  72   1.0000      -0.463932       -12.6242
  73   1.0000      -0.462204       -12.5772
  74   1.0000      -0.457912       -12.4604
  75   1.0000      -0.457063       -12.4373
  76   1.0000      -0.455635       -12.3985
  77   1.0000      -0.450971       -12.2715
  78   1.0000      -0.450770       -12.2661
  79   1.0000      -0.449373       -12.2281
  80   1.0000      -0.446770       -12.1572
  81   1.0000      -0.446556       -12.1514
  82   1.0000      -0.444305       -12.0901
  83   1.0000      -0.442897       -12.0519
  84   1.0000      -0.442344       -12.0368
  85   1.0000      -0.440728       -11.9928
  86   1.0000      -0.435073       -11.8389
  87   1.0000      -0.434345       -11.8191
  88   1.0000      -0.431303       -11.7364
  89   1.0000      -0.427140       -11.6231
  90   1.0000      -0.419730       -11.4214
  91   1.0000      -0.419533       -11.4161
  92   1.0000      -0.416754       -11.3405
  93   1.0000      -0.416693       -11.3388
  94   1.0000      -0.413021       -11.2389
  95   1.0000      -0.412119       -11.2143
  96   1.0000      -0.404509       -11.0073
  97   1.0000      -0.402852       -10.9622
  98   1.0000      -0.399302       -10.8656
  99   1.0000      -0.397865       -10.8265
 100   1.0000      -0.393233       -10.7004
 101   1.0000      -0.390796       -10.6341
 102   1.0000      -0.385527       -10.4907
 103   1.0000      -0.380979       -10.3670
 104   1.0000      -0.380833       -10.3630
 105   1.0000      -0.377900       -10.2832
 106   1.0000      -0.376917       -10.2564
 107   1.0000      -0.375443       -10.2163
 108   1.0000      -0.372298       -10.1307
 109   1.0000      -0.371914       -10.1203
 110   1.0000      -0.371285       -10.1032
 111   1.0000      -0.368740       -10.0339
 112   1.0000      -0.367887       -10.0107
 113   1.0000      -0.367605       -10.0030
 114   1.0000      -0.366339        -9.9686
 115   1.0000      -0.366147        -9.9634
 116   1.0000      -0.364196        -9.9103
 117   1.0000      -0.362065        -9.8523
 118   1.0000      -0.360160        -9.8005
 119   1.0000      -0.359367        -9.7789
 120   1.0000      -0.358371        -9.7518
 121   1.0000      -0.357680        -9.7330
 122   1.0000      -0.357507        -9.7283
 123   1.0000      -0.354785        -9.6542
 124   1.0000      -0.352630        -9.5955
 125   1.0000      -0.351986        -9.5780
 126   1.0000      -0.350097        -9.5266
 127   1.0000      -0.346997        -9.4423
 128   1.0000      -0.345771        -9.4089
 129   1.0000      -0.344368        -9.3707
 130   1.0000      -0.342048        -9.3076
 131   1.0000      -0.340954        -9.2778
 132   1.0000      -0.336701        -9.1621
 133   1.0000      -0.330316        -8.9883
 134   1.0000      -0.326683        -8.8895
 135   1.0000      -0.323117        -8.7925
 136   1.0000      -0.319505        -8.6942
 137   1.0000      -0.316086        -8.6011
 138   1.0000      -0.313744        -8.5374
 139   1.0000      -0.258292        -7.0285
 140   1.0000      -0.232793        -6.3346
 141   1.0000      -0.219652        -5.9770
 142   1.0000      -0.215208        -5.8561
 143   1.0000      -0.214347        -5.8327
 144   0.0000      -0.085806        -2.3349
 145   0.0000      -0.076229        -2.0743
 146   0.0000      -0.052242        -1.4216
 147   0.0000      -0.049638        -1.3507
 148   0.0000      -0.048751        -1.3266

MULLIKEN ATOMIC CHARGES AND SPIN POPULATIONS
--------------------------------------------
   0 Au:    0.327901   -0.226903
   1 Au:    0.377250    0.062802
   2 Au:    0.067395   -0.180126
   3 Au:   -0.015066   -0.007231
   4 Au:    0.044925   -0.057109
   5 Au:    0.329115   -0.227445
   6 Au:    0.041776   -0.057901
   7 Au:    0.379046    0.062801
   8 Au:    0.385843   -0.184680
   9 Au:   -0.014241   -0.006848
  10 Au:    0.386367   -0.184697
  11 Au:    0.212113   -0.068836
  12 Au:    0.065065   -0.179587
  13 Au:    0.212055   -0.068993
  14 Mn:   -2.799545    4.324754
Sum of atomic charges         :   -0.0000000

LOEWDIN ATOMIC CHARGES AND SPIN POPULATIONS
-------------------------------------------
   0 Au:    0.089550   -0.169114
   1 Au:    0.137247    0.010053
   2 Au:   -0.013208   -0.118084
   3 Au:   -0.042520   -0.041074
   4 Au:   -0.023385   -0.097909
   5 Au:    0.089848   -0.169242
   6 Au:   -0.023982   -0.098011
   7 Au:    0.137910    0.010026
   8 Au:    0.054318   -0.158222
   9 Au:   -0.042607   -0.040785
  10 Au:    0.054380   -0.158228
  11 Au:    0.058373   -0.114646
  12 Au:   -0.013759   -0.117948
  13 Au:    0.058157   -0.114635
  14 Mn:   -0.520323    4.377819

  Mayer bond orders larger than 0.100000
B(  0-Au,  4-Au) :   0.1289 B(  0-Au,  8-Au) :   0.1315 B(  0-Au,  9-Au) :   0.1893
B(  0-Au, 14-Mn) :   0.5283 B(  1-Au,  2-Au) :   0.3178 B(  1-Au,  3-Au) :   0.2738
B(  1-Au,  4-Au) :   0.3765 B(  2-Au,  3-Au) :   0.1331 B(  2-Au,  4-Au) :   0.1749
B(  2-Au,  8-Au) :   0.1990 B(  2-Au, 11-Au) :   0.2128 B(  2-Au, 14-Mn) :   0.4077
B(  3-Au,  4-Au) :   0.1550 B(  3-Au,  5-Au) :   0.1895 B(  3-Au, 10-Au) :   0.2612
B(  3-Au, 11-Au) :   0.1138 B(  3-Au, 14-Mn) :   0.3970 B(  4-Au,  6-Au) :   0.3497
B(  4-Au, 14-Mn) :   0.4127 B(  5-Au,  6-Au) :   0.1289 B(  5-Au, 10-Au) :   0.1306
B(  5-Au, 14-Mn) :   0.5293 B(  6-Au,  7-Au) :   0.3776 B(  6-Au,  9-Au) :   0.1551
B(  6-Au, 12-Au) :   0.1754 B(  6-Au, 14-Mn) :   0.4140 B(  7-Au,  9-Au) :   0.2723
B(  7-Au, 12-Au) :   0.3188 B(  8-Au,  9-Au) :   0.2622 B(  8-Au, 11-Au) :   0.1479
B(  8-Au, 14-Mn) :   0.4273 B(  9-Au, 12-Au) :   0.1336 B(  9-Au, 13-Au) :   0.1138
B(  9-Au, 14-Mn) :   0.3966 B( 10-Au, 12-Au) :   0.2009 B( 10-Au, 13-Au) :   0.1480
B( 10-Au, 14-Mn) :   0.4268 B( 11-Au, 13-Au) :   0.1189 B( 11-Au, 14-Mn) :   0.4813
B( 12-Au, 13-Au) :   0.2140 B( 12-Au, 14-Mn) :   0.4071 B( 13-Au, 14-Mn) :   0.4801

MP2 TOTAL ENERGY:    -3049.067508333 Eh
FINAL SINGLE POINT ENERGY     -3049.067508332679

DIPOLE MOMENT
-------------
                                X             Y             Z
Electronic contribution:     -1.72246       4.72254       4.49665
Nuclear contribution   :      1.68145      -4.61062      -4.39016
                        -----------------------------------------
Total Dipole Moment    :     -0.04101       0.11192       0.10648
                        -----------------------------------------
Magnitude (a.u.)       :      0.15984
Magnitude (Debye)      :      0.40627

Rotational constants in cm-1:     0.001289     0.000947     0.000895
Rotational constants in MHz :    38.631379    28.378572    26.819080

                             ****ORCA TERMINATED NORMALLY****
TOTAL RUN TIME: 0 days 2 hours 36 minutes 5 seconds 957 msec
