                         Program Version 5.0.3 -  RELEASE  -
|  1> !PBE def2-TZVP VERYSLOWCONV
|  2> !KDIIS
|  3>
|  4> %scf
|  5>   AutoTRAHIter 200
|  6>   maxiter 400
|  7> end
|  8>
|  9>
| 10> %pal nprocs 6 end
| 11>
| 12> *xyzfile 0 6 pbe.xyz
| 13>
| 14> $new_job
| 15>
| 16> !PBE def2-TZVP VERYSLOWCONV
| 17> !KDIIS
| 18>
| 19> %scf
| 20>   AutoTRAHIter 200
| 21>   maxiter 400
| 22> end
| 23>
| 24>
| 25> %pal nprocs 6 end
| 26>
| 27> *xyzfile 0 4 pbe.xyz
| 28>
| 29>
| 30>
| 31>
| 32>
| 33>                          ****END OF INPUT****
 Total Charge           Charge          ....    0
 Multiplicity           Mult            ....    6
 Number of Electrons    NEL             ....  291
FINAL SINGLE POINT ENERGY     -3052.358475518980

CARTESIAN COORDINATES (ANGSTROEM)
---------------------------------
  Au     6.325335    7.391827    9.838669
  Au    10.556593    9.405341    9.467113
  Au     9.189663    7.078552    8.983180
  Au     9.786278    9.203624    6.830432
  Au     7.875629    9.756794    9.499126
  Au     7.416584   10.692633    6.779212
  Au     5.351721    9.799354    8.525262
  Au     3.126037    8.862164    7.310100
  Au     7.171486    5.417867    7.958444
  Au     4.738814    6.653025    7.652980
  Au     7.970837    8.669067    4.841815
  Au     9.184331    6.425365    6.243661
  Au     5.289380    8.905788    5.628248
  Au     6.422448    6.348046    5.306814
  Mn     7.217861    8.060074    7.370086

 Multiplicity           Mult            ....    4
 Number of Electrons    NEL             ....  291
 Basis Dimension        Dim             ....  605

ORBITAL ENERGIES
----------------
                 SPIN UP ORBITALS
  NO   OCC          E(Eh)            E(eV)
   0   1.0000    -234.200808     -6372.9280
   1   1.0000     -26.894958      -731.8490
   2   1.0000     -23.044425      -627.0707
   3   1.0000     -23.043645      -627.0495
   4   1.0000     -23.043151      -627.0360
   5   1.0000      -4.033019      -109.7440
   6   1.0000      -4.033007      -109.7437
   7   1.0000      -4.031608      -109.7056
   8   1.0000      -4.031403      -109.7000
   9   1.0000      -4.030940      -109.6875
  10   1.0000      -4.030930      -109.6872
  11   1.0000      -4.025123      -109.5292
  12   1.0000      -4.025097      -109.5285
  13   1.0000      -4.023548      -109.4863
  14   1.0000      -4.023543      -109.4862
  15   1.0000      -4.020833      -109.4124
  16   1.0000      -4.020772      -109.4108
  17   1.0000      -4.019280      -109.3702
  18   1.0000      -4.019208      -109.3682
  19   1.0000      -3.101896       -84.4069
  20   1.0000      -2.251396       -61.2636
  21   1.0000      -2.248738       -61.1913
  22   1.0000      -2.248700       -61.1902
  23   1.0000      -2.247568       -61.1594
  24   1.0000      -2.247536       -61.1586
  25   1.0000      -2.247002       -61.1440
  26   1.0000      -2.245759       -61.1102
  27   1.0000      -2.245714       -61.1090
  28   1.0000      -2.244366       -61.0723
  29   1.0000      -2.244298       -61.0705
  30   1.0000      -2.244098       -61.0650
  31   1.0000      -2.244056       -61.0639
  32   1.0000      -2.243038       -61.0362
  33   1.0000      -2.242669       -61.0261
  34   1.0000      -2.241930       -61.0060
  35   1.0000      -2.241338       -60.9899
  36   1.0000      -2.240793       -60.9751
  37   1.0000      -2.240640       -60.9709
  38   1.0000      -2.240597       -60.9698
  39   1.0000      -2.240310       -60.9619
  40   1.0000      -2.239660       -60.9442
  41   1.0000      -2.239597       -60.9425
  42   1.0000      -2.237264       -60.8791
  43   1.0000      -2.237144       -60.8758
  44   1.0000      -2.235987       -60.8443
  45   1.0000      -2.235880       -60.8414
  46   1.0000      -2.235808       -60.8394
  47   1.0000      -2.235643       -60.8349
  48   1.0000      -2.235301       -60.8256
  49   1.0000      -2.235209       -60.8231
  50   1.0000      -2.234342       -60.7995
  51   1.0000      -2.234253       -60.7971
  52   1.0000      -2.233729       -60.7829
  53   1.0000      -2.233671       -60.7813
  54   1.0000      -2.233030       -60.7638
  55   1.0000      -2.232524       -60.7501
  56   1.0000      -2.232253       -60.7427
  57   1.0000      -2.231243       -60.7152
  58   1.0000      -2.231116       -60.7118
  59   1.0000      -2.231050       -60.7099
  60   1.0000      -2.229547       -60.6691
  61   1.0000      -2.229482       -60.6673
  62   1.0000      -2.006180       -54.5909
  63   1.0000      -2.004229       -54.5378
  64   1.0000      -2.003441       -54.5164
  65   1.0000      -0.439012       -11.9461
  66   1.0000      -0.390999       -10.6396
  67   1.0000      -0.387253       -10.5377
  68   1.0000      -0.385880       -10.5003
  69   1.0000      -0.377158       -10.2630
  70   1.0000      -0.376815       -10.2537
  71   1.0000      -0.373980       -10.1765
  72   1.0000      -0.372566       -10.1380
  73   1.0000      -0.367882       -10.0106
  74   1.0000      -0.364208        -9.9106
  75   1.0000      -0.351738        -9.5713
  76   1.0000      -0.351355        -9.5608
  77   1.0000      -0.349259        -9.5038
  78   1.0000      -0.348709        -9.4889
  79   1.0000      -0.346953        -9.4411
  80   1.0000      -0.344863        -9.3842
  81   1.0000      -0.344363        -9.3706
  82   1.0000      -0.341813        -9.3012
  83   1.0000      -0.338323        -9.2062
  84   1.0000      -0.337744        -9.1905
  85   1.0000      -0.337159        -9.1746
  86   1.0000      -0.333166        -9.0659
  87   1.0000      -0.331773        -9.0280
  88   1.0000      -0.330484        -8.9929
  89   1.0000      -0.326192        -8.8761
  90   1.0000      -0.320954        -8.7336
  91   1.0000      -0.320598        -8.7239
  92   1.0000      -0.318918        -8.6782
  93   1.0000      -0.318092        -8.6557
  94   1.0000      -0.313455        -8.5296
  95   1.0000      -0.312303        -8.4982
  96   1.0000      -0.304436        -8.2841
  97   1.0000      -0.304339        -8.2815
  98   1.0000      -0.303306        -8.2534
  99   1.0000      -0.299917        -8.1612
 100   1.0000      -0.297860        -8.1052
 101   1.0000      -0.296950        -8.0804
 102   1.0000      -0.295450        -8.0396
 103   1.0000      -0.294238        -8.0066
 104   1.0000      -0.289999        -7.8913
 105   1.0000      -0.286892        -7.8067
 106   1.0000      -0.283269        -7.7081
 107   1.0000      -0.282183        -7.6786
 108   1.0000      -0.281285        -7.6541
 109   1.0000      -0.276415        -7.5216
 110   1.0000      -0.275993        -7.5102
 111   1.0000      -0.275121        -7.4864
 112   1.0000      -0.274647        -7.4735
 113   1.0000      -0.273910        -7.4535
 114   1.0000      -0.270615        -7.3638
 115   1.0000      -0.270501        -7.3607
 116   1.0000      -0.269541        -7.3346
 117   1.0000      -0.267631        -7.2826
 118   1.0000      -0.266450        -7.2505
 119   1.0000      -0.266094        -7.2408
 120   1.0000      -0.264723        -7.2035
 121   1.0000      -0.262669        -7.1476
 122   1.0000      -0.262437        -7.1413
 123   1.0000      -0.259245        -7.0544
 124   1.0000      -0.258844        -7.0435
 125   1.0000      -0.258786        -7.0419
 126   1.0000      -0.258161        -7.0249
 127   1.0000      -0.253890        -6.9087
 128   1.0000      -0.252600        -6.8736
 129   1.0000      -0.251731        -6.8499
 130   1.0000      -0.251020        -6.8306
 131   1.0000      -0.248941        -6.7740
 132   1.0000      -0.247949        -6.7470
 133   1.0000      -0.246716        -6.7135
 134   1.0000      -0.246160        -6.6984
 135   1.0000      -0.243788        -6.6338
 136   1.0000      -0.243633        -6.6296
 137   1.0000      -0.242211        -6.5909
 138   1.0000      -0.241695        -6.5768
 139   1.0000      -0.240432        -6.5425
 140   1.0000      -0.239466        -6.5162
 141   1.0000      -0.237687        -6.4678
 142   1.0000      -0.234829        -6.3900
 143   1.0000      -0.230445        -6.2707
 144   1.0000      -0.219144        -5.9632
 145   1.0000      -0.202074        -5.4987
 146   1.0000      -0.189036        -5.1439
 147   0.0000      -0.180619        -4.9149
 148   0.0000      -0.178562        -4.8589
 149   0.0000      -0.143287        -3.8990
 150   0.0000      -0.138446        -3.7673
 151   0.0000      -0.119781        -3.2594

                 SPIN DOWN ORBITALS
  NO   OCC          E(Eh)            E(eV)
   0   1.0000    -234.200127     -6372.9094
   1   1.0000     -26.831235      -730.1150
   2   1.0000     -22.996614      -625.7697
   3   1.0000     -22.995669      -625.7440
   4   1.0000     -22.993765      -625.6922
   5   1.0000      -4.032960      -109.7424
   6   1.0000      -4.032948      -109.7421
   7   1.0000      -4.031449      -109.7013
   8   1.0000      -4.031244      -109.6957
   9   1.0000      -4.030703      -109.6810
  10   1.0000      -4.030700      -109.6809
  11   1.0000      -4.025131      -109.5294
  12   1.0000      -4.025114      -109.5289
  13   1.0000      -4.023528      -109.4858
  14   1.0000      -4.023527      -109.4857
  15   1.0000      -4.020964      -109.4160
  16   1.0000      -4.020903      -109.4143
  17   1.0000      -4.019732      -109.3825
  18   1.0000      -4.019660      -109.3805
  19   1.0000      -2.946091       -80.1672
  20   1.0000      -2.251190       -61.2580
  21   1.0000      -2.248546       -61.1861
  22   1.0000      -2.248497       -61.1847
  23   1.0000      -2.247237       -61.1504
  24   1.0000      -2.247211       -61.1497
  25   1.0000      -2.246806       -61.1387
  26   1.0000      -2.245536       -61.1041
  27   1.0000      -2.245464       -61.1022
  28   1.0000      -2.244291       -61.0703
  29   1.0000      -2.244231       -61.0686
  30   1.0000      -2.243683       -61.0537
  31   1.0000      -2.243576       -61.0508
  32   1.0000      -2.242459       -61.0204
  33   1.0000      -2.242300       -61.0161
  34   1.0000      -2.241516       -60.9947
  35   1.0000      -2.241011       -60.9810
  36   1.0000      -2.240951       -60.9794
  37   1.0000      -2.240849       -60.9766
  38   1.0000      -2.240549       -60.9684
  39   1.0000      -2.240481       -60.9666
  40   1.0000      -2.239696       -60.9452
  41   1.0000      -2.239638       -60.9437
  42   1.0000      -2.237421       -60.8833
  43   1.0000      -2.237316       -60.8805
  44   1.0000      -2.236240       -60.8512
  45   1.0000      -2.236161       -60.8490
  46   1.0000      -2.235681       -60.8360
  47   1.0000      -2.235507       -60.8312
  48   1.0000      -2.235421       -60.8289
  49   1.0000      -2.235289       -60.8253
  50   1.0000      -2.234278       -60.7978
  51   1.0000      -2.234182       -60.7952
  52   1.0000      -2.234088       -60.7926
  53   1.0000      -2.234079       -60.7924
  54   1.0000      -2.233258       -60.7700
  55   1.0000      -2.232716       -60.7553
  56   1.0000      -2.232574       -60.7514
  57   1.0000      -2.231550       -60.7236
  58   1.0000      -2.231343       -60.7179
  59   1.0000      -2.231278       -60.7162
  60   1.0000      -2.230184       -60.6864
  61   1.0000      -2.230115       -60.6845
  62   1.0000      -1.854857       -50.4732
  63   1.0000      -1.852564       -50.4108
  64   1.0000      -1.847774       -50.2805
  65   1.0000      -0.432912       -11.7801
  66   1.0000      -0.389992       -10.6122
  67   1.0000      -0.387268       -10.5381
  68   1.0000      -0.385315       -10.4849
  69   1.0000      -0.374635       -10.1943
  70   1.0000      -0.370793       -10.0898
  71   1.0000      -0.367555       -10.0017
  72   1.0000      -0.366043        -9.9605
  73   1.0000      -0.362186        -9.8556
  74   1.0000      -0.358710        -9.7610
  75   1.0000      -0.352845        -9.6014
  76   1.0000      -0.350056        -9.5255
  77   1.0000      -0.349253        -9.5037
  78   1.0000      -0.348072        -9.4715
  79   1.0000      -0.345568        -9.4034
  80   1.0000      -0.344515        -9.3747
  81   1.0000      -0.344137        -9.3645
  82   1.0000      -0.340904        -9.2765
  83   1.0000      -0.338800        -9.2192
  84   1.0000      -0.338352        -9.2070
  85   1.0000      -0.337452        -9.1825
  86   1.0000      -0.332718        -9.0537
  87   1.0000      -0.332630        -9.0513
  88   1.0000      -0.330278        -8.9873
  89   1.0000      -0.326424        -8.8825
  90   1.0000      -0.321032        -8.7357
  91   1.0000      -0.320340        -8.7169
  92   1.0000      -0.319059        -8.6820
  93   1.0000      -0.315927        -8.5968
  94   1.0000      -0.313249        -8.5239
  95   1.0000      -0.312684        -8.5086
  96   1.0000      -0.304230        -8.2785
  97   1.0000      -0.302192        -8.2231
  98   1.0000      -0.299623        -8.1531
  99   1.0000      -0.299440        -8.1482
 100   1.0000      -0.297359        -8.0916
 101   1.0000      -0.293419        -7.9843
 102   1.0000      -0.289333        -7.8732
 103   1.0000      -0.289115        -7.8672
 104   1.0000      -0.285879        -7.7792
 105   1.0000      -0.283984        -7.7276
 106   1.0000      -0.282502        -7.6873
 107   1.0000      -0.280348        -7.6287
 108   1.0000      -0.278417        -7.5761
 109   1.0000      -0.276448        -7.5225
 110   1.0000      -0.275653        -7.5009
 111   1.0000      -0.274922        -7.4810
 112   1.0000      -0.274101        -7.4587
 113   1.0000      -0.273160        -7.4331
 114   1.0000      -0.270897        -7.3715
 115   1.0000      -0.270780        -7.3683
 116   1.0000      -0.268445        -7.3048
 117   1.0000      -0.268177        -7.2975
 118   1.0000      -0.266887        -7.2624
 119   1.0000      -0.266358        -7.2480
 120   1.0000      -0.264896        -7.2082
 121   1.0000      -0.263775        -7.1777
 122   1.0000      -0.262948        -7.1552
 123   1.0000      -0.260627        -7.0920
 124   1.0000      -0.259415        -7.0591
 125   1.0000      -0.258761        -7.0413
 126   1.0000      -0.258429        -7.0322
 127   1.0000      -0.254009        -6.9119
 128   1.0000      -0.253219        -6.8904
 129   1.0000      -0.252395        -6.8680
 130   1.0000      -0.251686        -6.8487
 131   1.0000      -0.249282        -6.7833
 132   1.0000      -0.248325        -6.7573
 133   1.0000      -0.247614        -6.7379
 134   1.0000      -0.246528        -6.7084
 135   1.0000      -0.245115        -6.6699
 136   1.0000      -0.242461        -6.5977
 137   1.0000      -0.237353        -6.4587
 138   1.0000      -0.232384        -6.3235
 139   1.0000      -0.227444        -6.1891
 140   1.0000      -0.209857        -5.7105
 141   1.0000      -0.202406        -5.5077
 142   1.0000      -0.197018        -5.3611
 143   1.0000      -0.196167        -5.3380
 144   0.0000      -0.150244        -4.0883
 145   0.0000      -0.144045        -3.9197
 146   0.0000      -0.127559        -3.4711
 147   0.0000      -0.125671        -3.4197
 148   0.0000      -0.124713        -3.3936

MULLIKEN ATOMIC CHARGES AND SPIN POPULATIONS
--------------------------------------------
   0 Au:    0.352616   -0.158868
   1 Au:    0.414291    0.033364
   2 Au:    0.096033   -0.102587
   3 Au:    0.015905    0.029705
   4 Au:    0.083099   -0.019329
   5 Au:    0.353895   -0.159055
   6 Au:    0.080772   -0.019982
   7 Au:    0.415545    0.033410
   8 Au:    0.408581   -0.130590
   9 Au:    0.016333    0.029672
  10 Au:    0.408988   -0.130589
  11 Au:    0.258800   -0.039766
  12 Au:    0.094195   -0.102559
  13 Au:    0.258463   -0.040050
  14 Mn:   -3.257514    3.777223
Sum of atomic charges         :   -0.0000000

LOEWDIN ATOMIC CHARGES AND SPIN POPULATIONS
-------------------------------------------
   0 Au:    0.108675   -0.118689
   1 Au:    0.121664    0.003838
   2 Au:    0.009395   -0.070301
   3 Au:   -0.019191   -0.010790
   4 Au:    0.002756   -0.055882
   5 Au:    0.109145   -0.118634
   6 Au:    0.002225   -0.055920
   7 Au:    0.122174    0.003784
   8 Au:    0.077949   -0.106924
   9 Au:   -0.019293   -0.010708
  10 Au:    0.078008   -0.106912
  11 Au:    0.075624   -0.073920
  12 Au:    0.008853   -0.070433
  13 Au:    0.075343   -0.074036
  14 Mn:   -0.753328    3.865526

  Mayer bond orders larger than 0.100000
B(  0-Au,  4-Au) :   0.1569 B(  0-Au,  8-Au) :   0.1501 B(  0-Au,  9-Au) :   0.2118
B(  0-Au, 14-Mn) :   0.5723 B(  1-Au,  2-Au) :   0.3430 B(  1-Au,  3-Au) :   0.3114
B(  1-Au,  4-Au) :   0.4055 B(  2-Au,  3-Au) :   0.1404 B(  2-Au,  4-Au) :   0.1730
B(  2-Au,  8-Au) :   0.2300 B(  2-Au, 11-Au) :   0.2336 B(  2-Au, 14-Mn) :   0.4589
B(  3-Au,  4-Au) :   0.1556 B(  3-Au,  5-Au) :   0.2117 B(  3-Au, 10-Au) :   0.2889
B(  3-Au, 11-Au) :   0.1444 B(  3-Au, 14-Mn) :   0.4212 B(  4-Au,  6-Au) :   0.3801
B(  4-Au, 14-Mn) :   0.4279 B(  5-Au,  6-Au) :   0.1568 B(  5-Au, 10-Au) :   0.1492
B(  5-Au, 14-Mn) :   0.5738 B(  6-Au,  7-Au) :   0.4064 B(  6-Au,  9-Au) :   0.1558
B(  6-Au, 12-Au) :   0.1730 B(  6-Au, 14-Mn) :   0.4286 B(  7-Au,  9-Au) :   0.3098
B(  7-Au, 12-Au) :   0.3441 B(  8-Au,  9-Au) :   0.2894 B(  8-Au, 11-Au) :   0.1695
B(  8-Au, 13-Au) :   0.1248 B(  8-Au, 14-Mn) :   0.4493 B(  9-Au, 12-Au) :   0.1412
B(  9-Au, 13-Au) :   0.1443 B(  9-Au, 14-Mn) :   0.4207 B( 10-Au, 11-Au) :   0.1240
B( 10-Au, 12-Au) :   0.2320 B( 10-Au, 13-Au) :   0.1697 B( 10-Au, 14-Mn) :   0.4489
B( 11-Au, 13-Au) :   0.1471 B( 11-Au, 14-Mn) :   0.5025 B( 12-Au, 13-Au) :   0.2345
B( 12-Au, 14-Mn) :   0.4579 B( 13-Au, 14-Mn) :   0.5013

FINAL SINGLE POINT ENERGY     -3052.373321561789

DIPOLE MOMENT
-------------
                                X             Y             Z
Electronic contribution:     -1.71998       4.71699       4.49101
Nuclear contribution   :      1.68145      -4.61062      -4.39016
                        -----------------------------------------
Total Dipole Moment    :     -0.03853       0.10637       0.10085
                        -----------------------------------------
Magnitude (a.u.)       :      0.15155
Magnitude (Debye)      :      0.38522

Rotational constants in cm-1:     0.001289     0.000947     0.000895
Rotational constants in MHz :    38.631379    28.378572    26.819080

                             ****ORCA TERMINATED NORMALLY****
TOTAL RUN TIME: 0 days 0 hours 7 minutes 20 seconds 516 msec
