                         Program Version 5.0.3 -  RELEASE  -
|  1> !R2SCAN def2-TZVP VERYSLOWCONV
|  2> !KDIIS
|  3> %scf
|  4>   AutoTRAHIter 200
|  5>   maxiter 400
|  6> end
|  7>
|  8> %pal nprocs 6 end
|  9>
| 10> *xyzfile 0 6 pbe.xyz
| 11>
| 12> $new_job
| 13>
| 14> !R2SCAN def2-TZVP VERYSLOWCONV
| 15> !KDIIS
| 16> %scf
| 17>   AutoTRAHIter 200
| 18>   maxiter 400
| 19> end
| 20>
| 21>
| 22> %pal nprocs 6 end
| 23>
| 24> *xyzfile 0 4 pbe.xyz
| 25>
| 26>
| 27>
| 28>
| 29>
| 30>                          ****END OF INPUT****
 Total Charge           Charge          ....    0
 Multiplicity           Mult            ....    6
 Number of Electrons    NEL             ....  291
FINAL SINGLE POINT ENERGY     -3052.856305893255

CARTESIAN COORDINATES (ANGSTROEM)
---------------------------------
  Au     6.325335    7.391827    9.838669
  Au    10.556593    9.405341    9.467113
  Au     9.189663    7.078552    8.983180
  Au     9.786278    9.203624    6.830432
  Au     7.875629    9.756794    9.499126
  Au     7.416584   10.692633    6.779212
  Au     5.351721    9.799354    8.525262
  Au     3.126037    8.862164    7.310100
  Au     7.171486    5.417867    7.958444
  Au     4.738814    6.653025    7.652980
  Au     7.970837    8.669067    4.841815
  Au     9.184331    6.425365    6.243661
  Au     5.289380    8.905788    5.628248
  Au     6.422448    6.348046    5.306814
  Mn     7.217861    8.060074    7.370086

 Multiplicity           Mult            ....    4
 Number of Electrons    NEL             ....  291
 Basis Dimension        Dim             ....  605

ORBITAL ENERGIES
----------------
                 SPIN UP ORBITALS
  NO   OCC          E(Eh)            E(eV)
   0   1.0000    -235.042121     -6395.8213
   1   1.0000     -27.219782      -740.6879
   2   1.0000     -23.267511      -633.1412
   3   1.0000     -23.266653      -633.1178
   4   1.0000     -23.266296      -633.1081
   5   1.0000      -4.124157      -112.2240
   6   1.0000      -4.124149      -112.2238
   7   1.0000      -4.122761      -112.1860
   8   1.0000      -4.122527      -112.1797
   9   1.0000      -4.121911      -112.1629
  10   1.0000      -4.121898      -112.1625
  11   1.0000      -4.116137      -112.0058
  12   1.0000      -4.116106      -112.0049
  13   1.0000      -4.114174      -111.9524
  14   1.0000      -4.114172      -111.9523
  15   1.0000      -4.111774      -111.8871
  16   1.0000      -4.111705      -111.8852
  17   1.0000      -4.110225      -111.8449
  18   1.0000      -4.110146      -111.8428
  19   1.0000      -3.239904       -88.1623
  20   1.0000      -2.315222       -63.0004
  21   1.0000      -2.312773       -62.9338
  22   1.0000      -2.312742       -62.9329
  23   1.0000      -2.311592       -62.9016
  24   1.0000      -2.311556       -62.9007
  25   1.0000      -2.310550       -62.8733
  26   1.0000      -2.309587       -62.8471
  27   1.0000      -2.309547       -62.8460
  28   1.0000      -2.308392       -62.8145
  29   1.0000      -2.308359       -62.8136
  30   1.0000      -2.308151       -62.8080
  31   1.0000      -2.308028       -62.8046
  32   1.0000      -2.306991       -62.7764
  33   1.0000      -2.306592       -62.7656
  34   1.0000      -2.305985       -62.7490
  35   1.0000      -2.305308       -62.7306
  36   1.0000      -2.304791       -62.7165
  37   1.0000      -2.304576       -62.7107
  38   1.0000      -2.304563       -62.7103
  39   1.0000      -2.304271       -62.7024
  40   1.0000      -2.302963       -62.6668
  41   1.0000      -2.302926       -62.6658
  42   1.0000      -2.301074       -62.6154
  43   1.0000      -2.300944       -62.6119
  44   1.0000      -2.299908       -62.5837
  45   1.0000      -2.299810       -62.5810
  46   1.0000      -2.299620       -62.5758
  47   1.0000      -2.299419       -62.5704
  48   1.0000      -2.298919       -62.5568
  49   1.0000      -2.298818       -62.5540
  50   1.0000      -2.297783       -62.5259
  51   1.0000      -2.297678       -62.5230
  52   1.0000      -2.297240       -62.5111
  53   1.0000      -2.297161       -62.5089
  54   1.0000      -2.296738       -62.4974
  55   1.0000      -2.296086       -62.4797
  56   1.0000      -2.295751       -62.4706
  57   1.0000      -2.294825       -62.4454
  58   1.0000      -2.294666       -62.4410
  59   1.0000      -2.294590       -62.4390
  60   1.0000      -2.293138       -62.3994
  61   1.0000      -2.293068       -62.3976
  62   1.0000      -2.098306       -57.0978
  63   1.0000      -2.096170       -57.0397
  64   1.0000      -2.095420       -57.0193
  65   1.0000      -0.445164       -12.1135
  66   1.0000      -0.398850       -10.8533
  67   1.0000      -0.393695       -10.7130
  68   1.0000      -0.392090       -10.6693
  69   1.0000      -0.388048       -10.5593
  70   1.0000      -0.386157       -10.5079
  71   1.0000      -0.384781       -10.4704
  72   1.0000      -0.383381       -10.4323
  73   1.0000      -0.378878       -10.3098
  74   1.0000      -0.374480       -10.1901
  75   1.0000      -0.361485        -9.8365
  76   1.0000      -0.361015        -9.8237
  77   1.0000      -0.359063        -9.7706
  78   1.0000      -0.358465        -9.7543
  79   1.0000      -0.356597        -9.7035
  80   1.0000      -0.354763        -9.6536
  81   1.0000      -0.353426        -9.6172
  82   1.0000      -0.351886        -9.5753
  83   1.0000      -0.347471        -9.4552
  84   1.0000      -0.347261        -9.4494
  85   1.0000      -0.346813        -9.4373
  86   1.0000      -0.342437        -9.3182
  87   1.0000      -0.340934        -9.2773
  88   1.0000      -0.339541        -9.2394
  89   1.0000      -0.335197        -9.1212
  90   1.0000      -0.330220        -8.9857
  91   1.0000      -0.329391        -8.9632
  92   1.0000      -0.328531        -8.9398
  93   1.0000      -0.327722        -8.9178
  94   1.0000      -0.323022        -8.7899
  95   1.0000      -0.321343        -8.7442
  96   1.0000      -0.314718        -8.5639
  97   1.0000      -0.314632        -8.5616
  98   1.0000      -0.312304        -8.4982
  99   1.0000      -0.309440        -8.4203
 100   1.0000      -0.308000        -8.3811
 101   1.0000      -0.306601        -8.3430
 102   1.0000      -0.305837        -8.3223
 103   1.0000      -0.305610        -8.3161
 104   1.0000      -0.299978        -8.1628
 105   1.0000      -0.296009        -8.0548
 106   1.0000      -0.293187        -7.9780
 107   1.0000      -0.290381        -7.9017
 108   1.0000      -0.289694        -7.8830
 109   1.0000      -0.285018        -7.7557
 110   1.0000      -0.284654        -7.7458
 111   1.0000      -0.283621        -7.7177
 112   1.0000      -0.283591        -7.7169
 113   1.0000      -0.282358        -7.6833
 114   1.0000      -0.279136        -7.5957
 115   1.0000      -0.279109        -7.5949
 116   1.0000      -0.278079        -7.5669
 117   1.0000      -0.276090        -7.5128
 118   1.0000      -0.274732        -7.4758
 119   1.0000      -0.273995        -7.4558
 120   1.0000      -0.273035        -7.4296
 121   1.0000      -0.270688        -7.3658
 122   1.0000      -0.270408        -7.3582
 123   1.0000      -0.267368        -7.2754
 124   1.0000      -0.267104        -7.2683
 125   1.0000      -0.266973        -7.2647
 126   1.0000      -0.266310        -7.2466
 127   1.0000      -0.262334        -7.1385
 128   1.0000      -0.262190        -7.1346
 129   1.0000      -0.259951        -7.0736
 130   1.0000      -0.258845        -7.0435
 131   1.0000      -0.258658        -7.0384
 132   1.0000      -0.257970        -7.0197
 133   1.0000      -0.256217        -6.9720
 134   1.0000      -0.254869        -6.9353
 135   1.0000      -0.254771        -6.9327
 136   1.0000      -0.253604        -6.9009
 137   1.0000      -0.253013        -6.8848
 138   1.0000      -0.251724        -6.8498
 139   1.0000      -0.250879        -6.8268
 140   1.0000      -0.248516        -6.7625
 141   1.0000      -0.248273        -6.7559
 142   1.0000      -0.242732        -6.6051
 143   1.0000      -0.237518        -6.4632
 144   1.0000      -0.223749        -6.0885
 145   1.0000      -0.204364        -5.5610
 146   1.0000      -0.190947        -5.1959
 147   0.0000      -0.179323        -4.8796
 148   0.0000      -0.176656        -4.8070
 149   0.0000      -0.138580        -3.7710
 150   0.0000      -0.134186        -3.6514
 151   0.0000      -0.115516        -3.1434

                 SPIN DOWN ORBITALS
  NO   OCC          E(Eh)            E(eV)
   0   1.0000    -235.041122     -6395.7941
   1   1.0000     -27.133700      -738.3455
   2   1.0000     -23.201661      -631.3493
   3   1.0000     -23.200961      -631.3302
   4   1.0000     -23.199711      -631.2962
   5   1.0000      -4.124286      -112.2275
   6   1.0000      -4.124278      -112.2273
   7   1.0000      -4.122710      -112.1846
   8   1.0000      -4.122477      -112.1783
   9   1.0000      -4.121885      -112.1622
  10   1.0000      -4.121880      -112.1621
  11   1.0000      -4.116417      -112.0134
  12   1.0000      -4.116395      -112.0128
  13   1.0000      -4.114280      -111.9553
  14   1.0000      -4.114278      -111.9552
  15   1.0000      -4.112088      -111.8956
  16   1.0000      -4.112019      -111.8937
  17   1.0000      -4.110712      -111.8582
  18   1.0000      -4.110633      -111.8560
  19   1.0000      -3.035007       -82.5867
  20   1.0000      -2.315027       -62.9951
  21   1.0000      -2.312593       -62.9289
  22   1.0000      -2.312553       -62.9278
  23   1.0000      -2.311280       -62.8931
  24   1.0000      -2.311244       -62.8921
  25   1.0000      -2.310355       -62.8679
  26   1.0000      -2.309303       -62.8393
  27   1.0000      -2.309222       -62.8371
  28   1.0000      -2.308469       -62.8166
  29   1.0000      -2.308399       -62.8147
  30   1.0000      -2.307746       -62.7970
  31   1.0000      -2.307609       -62.7932
  32   1.0000      -2.306461       -62.7620
  33   1.0000      -2.306323       -62.7582
  34   1.0000      -2.305551       -62.7372
  35   1.0000      -2.305072       -62.7242
  36   1.0000      -2.305014       -62.7226
  37   1.0000      -2.304933       -62.7204
  38   1.0000      -2.304550       -62.7100
  39   1.0000      -2.304490       -62.7084
  40   1.0000      -2.303103       -62.6706
  41   1.0000      -2.303067       -62.6697
  42   1.0000      -2.301378       -62.6237
  43   1.0000      -2.301230       -62.6196
  44   1.0000      -2.300221       -62.5922
  45   1.0000      -2.300168       -62.5908
  46   1.0000      -2.299609       -62.5755
  47   1.0000      -2.299394       -62.5697
  48   1.0000      -2.299081       -62.5612
  49   1.0000      -2.298947       -62.5575
  50   1.0000      -2.297920       -62.5296
  51   1.0000      -2.297830       -62.5271
  52   1.0000      -2.297667       -62.5227
  53   1.0000      -2.297653       -62.5223
  54   1.0000      -2.297155       -62.5088
  55   1.0000      -2.296403       -62.4883
  56   1.0000      -2.296157       -62.4816
  57   1.0000      -2.295220       -62.4561
  58   1.0000      -2.294969       -62.4493
  59   1.0000      -2.294893       -62.4472
  60   1.0000      -2.293904       -62.4203
  61   1.0000      -2.293830       -62.4183
  62   1.0000      -1.895409       -51.5767
  63   1.0000      -1.893649       -51.5288
  64   1.0000      -1.890364       -51.4394
  65   1.0000      -0.439742       -11.9660
  66   1.0000      -0.397551       -10.8179
  67   1.0000      -0.394328       -10.7302
  68   1.0000      -0.391955       -10.6657
  69   1.0000      -0.383421       -10.4334
  70   1.0000      -0.379390       -10.3237
  71   1.0000      -0.376033       -10.2324
  72   1.0000      -0.374588       -10.1931
  73   1.0000      -0.370904       -10.0928
  74   1.0000      -0.367427        -9.9982
  75   1.0000      -0.362581        -9.8663
  76   1.0000      -0.360007        -9.7963
  77   1.0000      -0.358957        -9.7677
  78   1.0000      -0.357468        -9.7272
  79   1.0000      -0.355315        -9.6686
  80   1.0000      -0.353878        -9.6295
  81   1.0000      -0.353834        -9.6283
  82   1.0000      -0.350473        -9.5369
  83   1.0000      -0.348408        -9.4807
  84   1.0000      -0.348128        -9.4730
  85   1.0000      -0.347109        -9.4453
  86   1.0000      -0.342275        -9.3138
  87   1.0000      -0.342062        -9.3080
  88   1.0000      -0.339471        -9.2375
  89   1.0000      -0.335618        -9.1326
  90   1.0000      -0.330493        -8.9932
  91   1.0000      -0.329678        -8.9710
  92   1.0000      -0.328339        -8.9346
  93   1.0000      -0.325371        -8.8538
  94   1.0000      -0.322570        -8.7776
  95   1.0000      -0.321997        -8.7620
  96   1.0000      -0.313447        -8.5293
  97   1.0000      -0.311380        -8.4731
  98   1.0000      -0.308723        -8.4008
  99   1.0000      -0.307893        -8.3782
 100   1.0000      -0.306406        -8.3377
 101   1.0000      -0.302235        -8.2242
 102   1.0000      -0.297981        -8.1085
 103   1.0000      -0.297218        -8.0877
 104   1.0000      -0.294437        -8.0120
 105   1.0000      -0.292371        -7.9558
 106   1.0000      -0.290721        -7.9109
 107   1.0000      -0.288983        -7.8636
 108   1.0000      -0.286812        -7.8046
 109   1.0000      -0.285128        -7.7587
 110   1.0000      -0.284228        -7.7342
 111   1.0000      -0.283366        -7.7108
 112   1.0000      -0.282591        -7.6897
 113   1.0000      -0.281639        -7.6638
 114   1.0000      -0.279582        -7.6078
 115   1.0000      -0.279486        -7.6052
 116   1.0000      -0.277095        -7.5401
 117   1.0000      -0.276406        -7.5214
 118   1.0000      -0.275304        -7.4914
 119   1.0000      -0.274592        -7.4720
 120   1.0000      -0.273263        -7.4359
 121   1.0000      -0.272175        -7.4063
 122   1.0000      -0.271502        -7.3880
 123   1.0000      -0.269341        -7.3291
 124   1.0000      -0.267664        -7.2835
 125   1.0000      -0.267276        -7.2730
 126   1.0000      -0.266479        -7.2513
 127   1.0000      -0.262087        -7.1317
 128   1.0000      -0.261332        -7.1112
 129   1.0000      -0.260920        -7.1000
 130   1.0000      -0.259391        -7.0584
 131   1.0000      -0.257086        -6.9957
 132   1.0000      -0.255835        -6.9616
 133   1.0000      -0.254919        -6.9367
 134   1.0000      -0.254032        -6.9126
 135   1.0000      -0.251923        -6.8552
 136   1.0000      -0.249833        -6.7983
 137   1.0000      -0.244590        -6.6556
 138   1.0000      -0.239271        -6.5109
 139   1.0000      -0.230790        -6.2801
 140   1.0000      -0.211690        -5.7604
 141   1.0000      -0.203425        -5.5355
 142   1.0000      -0.197854        -5.3839
 143   1.0000      -0.196955        -5.3594
 144   0.0000      -0.144596        -3.9347
 145   0.0000      -0.138350        -3.7647
 146   0.0000      -0.118425        -3.2225
 147   0.0000      -0.117398        -3.1946
 148   0.0000      -0.111019        -3.0210

MULLIKEN ATOMIC CHARGES AND SPIN POPULATIONS
--------------------------------------------
   0 Au:    0.325048   -0.194415
   1 Au:    0.377356    0.037782
   2 Au:    0.082716   -0.131712
   3 Au:    0.001183    0.019245
   4 Au:    0.068380   -0.031520
   5 Au:    0.326178   -0.194643
   6 Au:    0.066380   -0.032034
   7 Au:    0.378642    0.037814
   8 Au:    0.383634   -0.155844
   9 Au:    0.001602    0.019297
  10 Au:    0.383968   -0.155966
  11 Au:    0.224609   -0.053733
  12 Au:    0.080985   -0.131435
  13 Au:    0.224287   -0.054174
  14 Mn:   -2.924970    4.021339
Sum of atomic charges         :   -0.0000000

LOEWDIN ATOMIC CHARGES AND SPIN POPULATIONS
-------------------------------------------
   0 Au:    0.102936   -0.139668
   1 Au:    0.118066    0.002123
   2 Au:    0.004362   -0.087188
   3 Au:   -0.025854   -0.022305
   4 Au:   -0.003098   -0.070187
   5 Au:    0.103368   -0.139627
   6 Au:   -0.003604   -0.070166
   7 Au:    0.118596    0.002083
   8 Au:    0.072476   -0.125135
   9 Au:   -0.025929   -0.022164
  10 Au:    0.072526   -0.125140
  11 Au:    0.068579   -0.089086
  12 Au:    0.003837   -0.087253
  13 Au:    0.068313   -0.089237
  14 Mn:   -0.674574    4.062950

  Mayer bond orders larger than 0.100000
B(  0-Au,  4-Au) :   0.1451 B(  0-Au,  8-Au) :   0.1412 B(  0-Au,  9-Au) :   0.2101
B(  0-Au, 14-Mn) :   0.5684 B(  1-Au,  2-Au) :   0.3369 B(  1-Au,  3-Au) :   0.3009
B(  1-Au,  4-Au) :   0.4035 B(  2-Au,  3-Au) :   0.1160 B(  2-Au,  4-Au) :   0.1537
B(  2-Au,  8-Au) :   0.2236 B(  2-Au, 11-Au) :   0.2326 B(  2-Au, 14-Mn) :   0.4444
B(  3-Au,  4-Au) :   0.1287 B(  3-Au,  5-Au) :   0.2102 B(  3-Au, 10-Au) :   0.2867
B(  3-Au, 11-Au) :   0.1277 B(  3-Au, 14-Mn) :   0.4047 B(  4-Au,  6-Au) :   0.3824
B(  4-Au, 14-Mn) :   0.4212 B(  5-Au,  6-Au) :   0.1450 B(  5-Au, 10-Au) :   0.1403
B(  5-Au, 14-Mn) :   0.5699 B(  6-Au,  7-Au) :   0.4044 B(  6-Au,  9-Au) :   0.1288
B(  6-Au, 12-Au) :   0.1536 B(  6-Au, 14-Mn) :   0.4219 B(  7-Au,  9-Au) :   0.2993
B(  7-Au, 12-Au) :   0.3380 B(  8-Au,  9-Au) :   0.2873 B(  8-Au, 11-Au) :   0.1589
B(  8-Au, 13-Au) :   0.1085 B(  8-Au, 14-Mn) :   0.4525 B(  9-Au, 12-Au) :   0.1169
B(  9-Au, 13-Au) :   0.1276 B(  9-Au, 14-Mn) :   0.4042 B( 10-Au, 11-Au) :   0.1077
B( 10-Au, 12-Au) :   0.2257 B( 10-Au, 13-Au) :   0.1592 B( 10-Au, 14-Mn) :   0.4522
B( 11-Au, 13-Au) :   0.1349 B( 11-Au, 14-Mn) :   0.4941 B( 12-Au, 13-Au) :   0.2335
B( 12-Au, 14-Mn) :   0.4433 B( 13-Au, 14-Mn) :   0.4929

FINAL SINGLE POINT ENERGY     -3052.870371080830

DIPOLE MOMENT
-------------
                                X             Y             Z
Electronic contribution:     -1.71984       4.71601       4.49012
Nuclear contribution   :      1.68145      -4.61062      -4.39016
                        -----------------------------------------
Total Dipole Moment    :     -0.03839       0.10539       0.09996
                        -----------------------------------------
Magnitude (a.u.)       :      0.15025
Magnitude (Debye)      :      0.38189

Rotational constants in cm-1:     0.001289     0.000947     0.000895
Rotational constants in MHz :    38.631379    28.378572    26.819080

                             ****ORCA TERMINATED NORMALLY****
TOTAL RUN TIME: 0 days 0 hours 12 minutes 1 seconds 483 msec
