                         Program Version 5.0.3 -  RELEASE  -
|  1> !RI-B2PLYP def2-TZVP def2-TZVP/C
|  2> !RIJCOSX VERYSLOWCONV
|  3>
|  4> %scf
|  5>   AutoTRAHIter 200
|  6>   maxiter 400
|  7> end
|  8>
|  9>
| 10> %pal nprocs 6 end
| 11>
| 12> *xyzfile 0 5 pbe.xyz
| 13>
| 14> $new_job
| 15>
| 16> !RI-B2PLYP def2-TZVP def2-TZVP/C
| 17> !RIJCOSX VERYSLOWCONV
| 18>
| 19> %scf
| 20>   AutoTRAHIter 200
| 21>   maxiter 400
| 22> end
| 23>
| 24>
| 25> %pal nprocs 6 end
| 26>
| 27> *xyzfile 0 3 pbe.xyz
| 28>
| 29>
| 30>
| 31>
| 32>
| 33>                          ****END OF INPUT****
 Total Charge           Charge          ....    0
 Multiplicity           Mult            ....    5
 Number of Electrons    NEL             ....  330
MP2 TOTAL ENERGY:    -3432.985338328 Eh
FINAL SINGLE POINT ENERGY     -3432.985338328274

CARTESIAN COORDINATES (ANGSTROEM)
---------------------------------
  Au     9.333145   10.793707    6.673820
  Au     7.760018    5.334774    7.079859
  Au     9.353804    7.916528    7.103730
  Au     5.426843    5.984503    8.523179
  Au     7.907753    6.995478    9.313570
  Au     8.643207    9.630636    9.138655
  Au     6.714626   11.020732    7.653510
  Au     4.559524    9.594267    6.703135
  Au     5.758053    8.786962    9.081485
  Au     7.560189    8.097144    3.205483
  Au     7.126545   10.003007    5.144445
  Au     9.815626    9.050737    4.585557
  Au     5.035708    8.384437    4.234636
  Au     9.021185    6.374820    4.864934
  Au     6.242590    5.919735    4.821859
  Au     3.987018    6.862124    6.329075
  Fe     6.533906    7.734321    6.756053

 Multiplicity           Mult            ....    3
 Number of Electrons    NEL             ....  330
 Basis Dimension        Dim             ....  685

ORBITAL ENERGIES
----------------
                 SPIN UP ORBITALS
  NO   OCC          E(Eh)            E(eV)
   0   1.0000    -258.348905     -7030.0311
   1   1.0000     -30.908328      -841.0584
   2   1.0000     -26.626744      -724.5505
   3   1.0000     -26.598827      -723.7909
   4   1.0000     -26.594162      -723.6639
   5   1.0000      -4.410718      -120.0217
   6   1.0000      -4.410695      -120.0211
   7   1.0000      -4.410543      -120.0170
   8   1.0000      -4.410478      -120.0152
   9   1.0000      -4.408401      -119.9587
  10   1.0000      -4.408321      -119.9565
  11   1.0000      -4.406780      -119.9146
  12   1.0000      -4.406680      -119.9119
  13   1.0000      -4.400261      -119.7372
  14   1.0000      -4.400077      -119.7322
  15   1.0000      -4.398895      -119.7000
  16   1.0000      -4.398849      -119.6988
  17   1.0000      -4.394744      -119.5871
  18   1.0000      -4.394600      -119.5832
  19   1.0000      -4.391720      -119.5048
  20   1.0000      -4.391532      -119.4996
  21   1.0000      -3.921655      -106.7137
  22   1.0000      -2.672547       -72.7237
  23   1.0000      -2.614418       -71.1419
  24   1.0000      -2.604588       -70.8744
  25   1.0000      -2.531698       -68.8910
  26   1.0000      -2.531671       -68.8903
  27   1.0000      -2.530167       -68.8493
  28   1.0000      -2.529996       -68.8447
  29   1.0000      -2.529952       -68.8435
  30   1.0000      -2.529804       -68.8395
  31   1.0000      -2.528724       -68.8101
  32   1.0000      -2.528675       -68.8087
  33   1.0000      -2.527784       -68.7845
  34   1.0000      -2.527741       -68.7833
  35   1.0000      -2.526788       -68.7574
  36   1.0000      -2.526731       -68.7559
  37   1.0000      -2.526231       -68.7423
  38   1.0000      -2.526201       -68.7414
  39   1.0000      -2.525381       -68.7191
  40   1.0000      -2.525084       -68.7110
  41   1.0000      -2.524172       -68.6862
  42   1.0000      -2.523962       -68.6805
  43   1.0000      -2.523050       -68.6557
  44   1.0000      -2.522935       -68.6526
  45   1.0000      -2.522783       -68.6484
  46   1.0000      -2.522633       -68.6443
  47   1.0000      -2.522203       -68.6326
  48   1.0000      -2.521957       -68.6259
  49   1.0000      -2.519713       -68.5649
  50   1.0000      -2.518434       -68.5301
  51   1.0000      -2.518163       -68.5227
  52   1.0000      -2.517473       -68.5039
  53   1.0000      -2.517395       -68.5018
  54   1.0000      -2.516085       -68.4661
  55   1.0000      -2.515943       -68.4623
  56   1.0000      -2.514900       -68.4339
  57   1.0000      -2.514552       -68.4244
  58   1.0000      -2.514491       -68.4228
  59   1.0000      -2.514484       -68.4226
  60   1.0000      -2.514180       -68.4143
  61   1.0000      -2.513164       -68.3867
  62   1.0000      -2.512945       -68.3807
  63   1.0000      -2.511892       -68.3521
  64   1.0000      -2.511770       -68.3487
  65   1.0000      -2.511207       -68.3334
  66   1.0000      -2.509592       -68.2895
  67   1.0000      -2.509460       -68.2859
  68   1.0000      -2.508546       -68.2610
  69   1.0000      -2.508511       -68.2601
  70   1.0000      -2.507691       -68.2377
  71   1.0000      -2.507129       -68.2224
  72   1.0000      -2.506449       -68.2039
  73   1.0000      -0.572208       -15.5706
  74   1.0000      -0.563421       -15.3315
  75   1.0000      -0.559385       -15.2216
  76   1.0000      -0.540966       -14.7204
  77   1.0000      -0.517691       -14.0871
  78   1.0000      -0.504908       -13.7392
  79   1.0000      -0.476281       -12.9603
  80   1.0000      -0.475485       -12.9386
  81   1.0000      -0.472993       -12.8708
  82   1.0000      -0.471869       -12.8402
  83   1.0000      -0.470785       -12.8107
  84   1.0000      -0.468609       -12.7515
  85   1.0000      -0.467284       -12.7155
  86   1.0000      -0.466321       -12.6892
  87   1.0000      -0.465113       -12.6564
  88   1.0000      -0.463782       -12.6202
  89   1.0000      -0.463060       -12.6005
  90   1.0000      -0.460031       -12.5181
  91   1.0000      -0.457612       -12.4523
  92   1.0000      -0.456478       -12.4214
  93   1.0000      -0.454368       -12.3640
  94   1.0000      -0.452454       -12.3119
  95   1.0000      -0.449868       -12.2415
  96   1.0000      -0.449164       -12.2224
  97   1.0000      -0.447473       -12.1764
  98   1.0000      -0.447233       -12.1698
  99   1.0000      -0.445731       -12.1289
 100   1.0000      -0.444005       -12.0820
 101   1.0000      -0.441624       -12.0172
 102   1.0000      -0.440706       -11.9922
 103   1.0000      -0.440463       -11.9856
 104   1.0000      -0.438361       -11.9284
 105   1.0000      -0.433509       -11.7964
 106   1.0000      -0.430765       -11.7217
 107   1.0000      -0.424786       -11.5590
 108   1.0000      -0.422663       -11.5012
 109   1.0000      -0.422273       -11.4906
 110   1.0000      -0.421637       -11.4733
 111   1.0000      -0.417102       -11.3499
 112   1.0000      -0.416598       -11.3362
 113   1.0000      -0.415760       -11.3134
 114   1.0000      -0.410745       -11.1770
 115   1.0000      -0.408281       -11.1099
 116   1.0000      -0.400836       -10.9073
 117   1.0000      -0.400772       -10.9056
 118   1.0000      -0.395796       -10.7701
 119   1.0000      -0.394621       -10.7382
 120   1.0000      -0.393507       -10.7079
 121   1.0000      -0.391898       -10.6641
 122   1.0000      -0.390000       -10.6124
 123   1.0000      -0.387196       -10.5361
 124   1.0000      -0.385874       -10.5002
 125   1.0000      -0.383439       -10.4339
 126   1.0000      -0.381471       -10.3804
 127   1.0000      -0.379797       -10.3348
 128   1.0000      -0.379597       -10.3294
 129   1.0000      -0.377687       -10.2774
 130   1.0000      -0.374966       -10.2033
 131   1.0000      -0.372463       -10.1352
 132   1.0000      -0.371203       -10.1009
 133   1.0000      -0.370735       -10.0882
 134   1.0000      -0.368787       -10.0352
 135   1.0000      -0.366479        -9.9724
 136   1.0000      -0.365541        -9.9469
 137   1.0000      -0.362824        -9.8730
 138   1.0000      -0.361745        -9.8436
 139   1.0000      -0.360919        -9.8211
 140   1.0000      -0.359989        -9.7958
 141   1.0000      -0.359520        -9.7830
 142   1.0000      -0.357914        -9.7393
 143   1.0000      -0.356243        -9.6939
 144   1.0000      -0.355737        -9.6801
 145   1.0000      -0.353128        -9.6091
 146   1.0000      -0.350553        -9.5390
 147   1.0000      -0.347807        -9.4643
 148   1.0000      -0.347731        -9.4622
 149   1.0000      -0.345851        -9.4111
 150   1.0000      -0.343937        -9.3590
 151   1.0000      -0.343808        -9.3555
 152   1.0000      -0.341994        -9.3061
 153   1.0000      -0.337539        -9.1849
 154   1.0000      -0.336204        -9.1486
 155   1.0000      -0.331203        -9.0125
 156   1.0000      -0.329187        -8.9576
 157   1.0000      -0.327163        -8.9026
 158   1.0000      -0.326769        -8.8918
 159   1.0000      -0.321534        -8.7494
 160   1.0000      -0.319337        -8.6896
 161   1.0000      -0.315403        -8.5826
 162   1.0000      -0.244313        -6.6481
 163   1.0000      -0.243331        -6.6214
 164   1.0000      -0.241248        -6.5647
 165   1.0000      -0.223037        -6.0691
 166   0.0000      -0.145261        -3.9527
 167   0.0000      -0.093645        -2.5482
 168   0.0000      -0.084220        -2.2918
 169   0.0000      -0.072254        -1.9661
 170   0.0000      -0.064307        -1.7499

                 SPIN DOWN ORBITALS
  NO   OCC          E(Eh)            E(eV)
   0   1.0000    -258.347283     -7029.9870
   1   1.0000     -30.815380      -838.5291
   2   1.0000     -26.527179      -721.8412
   3   1.0000     -26.519413      -721.6299
   4   1.0000     -26.518033      -721.5924
   5   1.0000      -4.411424      -120.0410
   6   1.0000      -4.411419      -120.0408
   7   1.0000      -4.410342      -120.0115
   8   1.0000      -4.410257      -120.0092
   9   1.0000      -4.409533      -119.9895
  10   1.0000      -4.409433      -119.9868
  11   1.0000      -4.407565      -119.9359
  12   1.0000      -4.407482      -119.9337
  13   1.0000      -4.400486      -119.7433
  14   1.0000      -4.400299      -119.7382
  15   1.0000      -4.400118      -119.7333
  16   1.0000      -4.400090      -119.7325
  17   1.0000      -4.396085      -119.6236
  18   1.0000      -4.395958      -119.6201
  19   1.0000      -4.391882      -119.5092
  20   1.0000      -4.391691      -119.5040
  21   1.0000      -3.676612      -100.0457
  22   1.0000      -2.531487       -68.8853
  23   1.0000      -2.531325       -68.8809
  24   1.0000      -2.530254       -68.8517
  25   1.0000      -2.530176       -68.8496
  26   1.0000      -2.530093       -68.8473
  27   1.0000      -2.530049       -68.8461
  28   1.0000      -2.529183       -68.8226
  29   1.0000      -2.529077       -68.8197
  30   1.0000      -2.527967       -68.7895
  31   1.0000      -2.527912       -68.7880
  32   1.0000      -2.527283       -68.7709
  33   1.0000      -2.527251       -68.7700
  34   1.0000      -2.526777       -68.7571
  35   1.0000      -2.526678       -68.7544
  36   1.0000      -2.525415       -68.7200
  37   1.0000      -2.525190       -68.7139
  38   1.0000      -2.524391       -68.6922
  39   1.0000      -2.524148       -68.6855
  40   1.0000      -2.523915       -68.6792
  41   1.0000      -2.523827       -68.6768
  42   1.0000      -2.523598       -68.6706
  43   1.0000      -2.523385       -68.6648
  44   1.0000      -2.522782       -68.6484
  45   1.0000      -2.522487       -68.6404
  46   1.0000      -2.519260       -68.5526
  47   1.0000      -2.518916       -68.5432
  48   1.0000      -2.518507       -68.5321
  49   1.0000      -2.518206       -68.5239
  50   1.0000      -2.518143       -68.5221
  51   1.0000      -2.517596       -68.5073
  52   1.0000      -2.517358       -68.5008
  53   1.0000      -2.515840       -68.4595
  54   1.0000      -2.515750       -68.4570
  55   1.0000      -2.515116       -68.4398
  56   1.0000      -2.514890       -68.4336
  57   1.0000      -2.514544       -68.4242
  58   1.0000      -2.514083       -68.4117
  59   1.0000      -2.513980       -68.4089
  60   1.0000      -2.513775       -68.4033
  61   1.0000      -2.513417       -68.3936
  62   1.0000      -2.511671       -68.3461
  63   1.0000      -2.510762       -68.3213
  64   1.0000      -2.510647       -68.3182
  65   1.0000      -2.508813       -68.2683
  66   1.0000      -2.508778       -68.2673
  67   1.0000      -2.507994       -68.2460
  68   1.0000      -2.507220       -68.2249
  69   1.0000      -2.506588       -68.2077
  70   1.0000      -2.354763       -64.0763
  71   1.0000      -2.353910       -64.0532
  72   1.0000      -2.341535       -63.7164
  73   1.0000      -0.518243       -14.1021
  74   1.0000      -0.481473       -13.1015
  75   1.0000      -0.479325       -13.0431
  76   1.0000      -0.477669       -12.9980
  77   1.0000      -0.476736       -12.9727
  78   1.0000      -0.474978       -12.9248
  79   1.0000      -0.474887       -12.9223
  80   1.0000      -0.470619       -12.8062
  81   1.0000      -0.470064       -12.7911
  82   1.0000      -0.468519       -12.7491
  83   1.0000      -0.467956       -12.7337
  84   1.0000      -0.467296       -12.7158
  85   1.0000      -0.466241       -12.6871
  86   1.0000      -0.462844       -12.5946
  87   1.0000      -0.462814       -12.5938
  88   1.0000      -0.461767       -12.5653
  89   1.0000      -0.458391       -12.4734
  90   1.0000      -0.457711       -12.4549
  91   1.0000      -0.455065       -12.3830
  92   1.0000      -0.451784       -12.2937
  93   1.0000      -0.451340       -12.2816
  94   1.0000      -0.450289       -12.2530
  95   1.0000      -0.450194       -12.2504
  96   1.0000      -0.447381       -12.1739
  97   1.0000      -0.444374       -12.0920
  98   1.0000      -0.441894       -12.0246
  99   1.0000      -0.441461       -12.0128
 100   1.0000      -0.438732       -11.9385
 101   1.0000      -0.432560       -11.7705
 102   1.0000      -0.431584       -11.7440
 103   1.0000      -0.426109       -11.5950
 104   1.0000      -0.425296       -11.5729
 105   1.0000      -0.424352       -11.5472
 106   1.0000      -0.419337       -11.4107
 107   1.0000      -0.418753       -11.3949
 108   1.0000      -0.418504       -11.3881
 109   1.0000      -0.414632       -11.2827
 110   1.0000      -0.412462       -11.2237
 111   1.0000      -0.407678       -11.0935
 112   1.0000      -0.404211       -10.9991
 113   1.0000      -0.400259       -10.8916
 114   1.0000      -0.397655       -10.8207
 115   1.0000      -0.395532       -10.7630
 116   1.0000      -0.395209       -10.7542
 117   1.0000      -0.394975       -10.7478
 118   1.0000      -0.393609       -10.7106
 119   1.0000      -0.389890       -10.6094
 120   1.0000      -0.389490       -10.5986
 121   1.0000      -0.386315       -10.5122
 122   1.0000      -0.386029       -10.5044
 123   1.0000      -0.384244       -10.4558
 124   1.0000      -0.381581       -10.3834
 125   1.0000      -0.377977       -10.2853
 126   1.0000      -0.377235       -10.2651
 127   1.0000      -0.374697       -10.1960
 128   1.0000      -0.372415       -10.1339
 129   1.0000      -0.371664       -10.1135
 130   1.0000      -0.367617       -10.0034
 131   1.0000      -0.367337        -9.9957
 132   1.0000      -0.364809        -9.9270
 133   1.0000      -0.364525        -9.9192
 134   1.0000      -0.362471        -9.8633
 135   1.0000      -0.362116        -9.8537
 136   1.0000      -0.360730        -9.8160
 137   1.0000      -0.359607        -9.7854
 138   1.0000      -0.358309        -9.7501
 139   1.0000      -0.357961        -9.7406
 140   1.0000      -0.355685        -9.6787
 141   1.0000      -0.353517        -9.6197
 142   1.0000      -0.352020        -9.5789
 143   1.0000      -0.351312        -9.5597
 144   1.0000      -0.349400        -9.5077
 145   1.0000      -0.345632        -9.4051
 146   1.0000      -0.344739        -9.3808
 147   1.0000      -0.343764        -9.3543
 148   1.0000      -0.340677        -9.2703
 149   1.0000      -0.338837        -9.2202
 150   1.0000      -0.337789        -9.1917
 151   1.0000      -0.333685        -9.0800
 152   1.0000      -0.332922        -9.0593
 153   1.0000      -0.331091        -9.0094
 154   1.0000      -0.328490        -8.9387
 155   1.0000      -0.328316        -8.9339
 156   1.0000      -0.325185        -8.8487
 157   1.0000      -0.320942        -8.7333
 158   1.0000      -0.252995        -6.8843
 159   1.0000      -0.251394        -6.8408
 160   1.0000      -0.245307        -6.6751
 161   1.0000      -0.241462        -6.5705
 162   1.0000      -0.234018        -6.3680
 163   1.0000      -0.171979        -4.6798
 164   0.0000      -0.090243        -2.4556
 165   0.0000      -0.078173        -2.1272
 166   0.0000      -0.072450        -1.9715
 167   0.0000      -0.068841        -1.8733
 168   0.0000      -0.064384        -1.7520

MULLIKEN ATOMIC CHARGES AND SPIN POPULATIONS
--------------------------------------------
   0 Au:    0.220086    0.003322
   1 Au:    0.163533   -0.125716
   2 Au:   -0.517349   -0.003120
   3 Au:    0.260322   -0.024042
   4 Au:    0.230572   -0.093598
   5 Au:    0.192162   -0.212194
   6 Au:    0.162163   -0.142745
   7 Au:    0.162303   -0.125253
   8 Au:    0.195478   -0.140509
   9 Au:    0.194447   -0.214163
  10 Au:   -0.528693   -0.003105
  11 Au:    0.220107    0.003564
  12 Au:    0.230347   -0.092978
  13 Au:    0.157021   -0.140307
  14 Au:    0.194069   -0.140558
  15 Au:    0.260310   -0.024968
  16 Fe:   -1.796879    3.476372
Sum of atomic charges         :   -0.0000000

LOEWDIN ATOMIC CHARGES AND SPIN POPULATIONS
-------------------------------------------
   0 Au:    0.023907   -0.036634
   1 Au:    0.019576   -0.124176
   2 Au:   -0.078135   -0.052845
   3 Au:    0.049725   -0.067761
   4 Au:    0.025628   -0.120191
   5 Au:    0.010632   -0.159651
   6 Au:   -0.009166   -0.145512
   7 Au:    0.019140   -0.123922
   8 Au:    0.043015   -0.094529
   9 Au:    0.011023   -0.160652
  10 Au:   -0.079380   -0.053459
  11 Au:    0.023906   -0.036487
  12 Au:    0.025821   -0.120144
  13 Au:   -0.009785   -0.144214
  14 Au:    0.042538   -0.094410
  15 Au:    0.049291   -0.068219
  16 Fe:   -0.167738    3.602804

  Mayer bond orders larger than 0.100000
B(  0-Au,  2-Au) :   0.1911 B(  0-Au,  5-Au) :   0.2284 B(  0-Au,  6-Au) :   0.2551
B(  0-Au, 10-Au) :   0.3248 B(  0-Au, 11-Au) :   0.2623 B(  1-Au,  3-Au) :   0.2077
B(  1-Au,  4-Au) :   0.2192 B(  1-Au, 13-Au) :   0.2627 B(  1-Au, 14-Au) :   0.1715
B(  1-Au, 16-Fe) :   0.4033 B(  2-Au,  4-Au) :   0.2668 B(  2-Au,  5-Au) :   0.3614
B(  2-Au, 10-Au) :   0.1301 B(  2-Au, 11-Au) :   0.3227 B(  2-Au, 13-Au) :   0.3443
B(  2-Au, 16-Fe) :   0.3911 B(  3-Au,  4-Au) :   0.2095 B(  3-Au,  8-Au) :   0.1307
B(  3-Au, 15-Au) :   0.2027 B(  3-Au, 16-Fe) :   0.3355 B(  4-Au,  5-Au) :   0.2824
B(  4-Au,  8-Au) :   0.1683 B(  4-Au, 16-Fe) :   0.2385 B(  5-Au,  6-Au) :   0.2341
B(  5-Au,  8-Au) :   0.1034 B(  6-Au,  7-Au) :   0.2621 B(  6-Au,  8-Au) :   0.1474
B(  6-Au, 10-Au) :   0.3446 B(  6-Au, 16-Fe) :   0.1328 B(  7-Au,  8-Au) :   0.1717
B(  7-Au, 12-Au) :   0.2178 B(  7-Au, 15-Au) :   0.2091 B(  7-Au, 16-Fe) :   0.4034
B(  8-Au, 16-Fe) :   0.5397 B(  9-Au, 10-Au) :   0.3631 B(  9-Au, 11-Au) :   0.2284
B(  9-Au, 12-Au) :   0.2824 B(  9-Au, 13-Au) :   0.2341 B(  9-Au, 14-Au) :   0.1011
B( 10-Au, 11-Au) :   0.1932 B( 10-Au, 12-Au) :   0.2682 B( 10-Au, 16-Fe) :   0.3921
B( 11-Au, 13-Au) :   0.2556 B( 12-Au, 14-Au) :   0.1700 B( 12-Au, 15-Au) :   0.2096
B( 12-Au, 16-Fe) :   0.2359 B( 13-Au, 14-Au) :   0.1486 B( 13-Au, 16-Fe) :   0.1348
B( 14-Au, 15-Au) :   0.1324 B( 14-Au, 16-Fe) :   0.5392 B( 15-Au, 16-Fe) :   0.3332

MP2 TOTAL ENERGY:    -3432.934815567 Eh
FINAL SINGLE POINT ENERGY     -3432.934815567281

DIPOLE MOMENT
-------------
                                X             Y             Z
Electronic contribution:     22.81137      16.45748      -8.55710
Nuclear contribution   :    -23.21146     -16.74584       8.70709
                        -----------------------------------------
Total Dipole Moment    :     -0.40009      -0.28836       0.15000
                        -----------------------------------------
Magnitude (a.u.)       :      0.51548
Magnitude (Debye)      :      1.31025

Rotational constants in cm-1:     0.000887     0.000873     0.000760
Rotational constants in MHz :    26.595397    26.169594    22.780533

                             ****ORCA TERMINATED NORMALLY****
TOTAL RUN TIME: 0 days 0 hours 40 minutes 30 seconds 206 msec
