                         Program Version 5.0.3 -  RELEASE  -
|  1> !PBE def2-TZVP VERYSLOWCONV
|  2>
|  3> %scf
|  4>   AutoTRAHIter 200
|  5>   maxiter 400
|  6> end
|  7>
|  8>
|  9> %pal nprocs 6 end
| 10>
| 11> *xyzfile 0 5 pbe.xyz
| 12>
| 13> $new_job
| 14>
| 15> !PBE def2-TZVP VERYSLOWCONV
| 16>
| 17> %scf
| 18>   AutoTRAHIter 200
| 19>   maxiter 400
| 20> end
| 21>
| 22>
| 23> %pal nprocs 6 end
| 24>
| 25> *xyzfile 0 3 pbe.xyz
| 26>
| 27>
| 28>
| 29>
| 30>
| 31>                          ****END OF INPUT****
 Total Charge           Charge          ....    0
 Multiplicity           Mult            ....    5
 Number of Electrons    NEL             ....  330
FINAL SINGLE POINT ENERGY     -3436.759116945243

CARTESIAN COORDINATES (ANGSTROEM)
---------------------------------
  Au     9.333145   10.793707    6.673820
  Au     7.760018    5.334774    7.079859
  Au     9.353804    7.916528    7.103730
  Au     5.426843    5.984503    8.523179
  Au     7.907753    6.995478    9.313570
  Au     8.643207    9.630636    9.138655
  Au     6.714626   11.020732    7.653510
  Au     4.559524    9.594267    6.703135
  Au     5.758053    8.786962    9.081485
  Au     7.560189    8.097144    3.205483
  Au     7.126545   10.003007    5.144445
  Au     9.815626    9.050737    4.585557
  Au     5.035708    8.384437    4.234636
  Au     9.021185    6.374820    4.864934
  Au     6.242590    5.919735    4.821859
  Au     3.987018    6.862124    6.329075
  Fe     6.533906    7.734321    6.756053

 Multiplicity           Mult            ....    3
 Number of Electrons    NEL             ....  330
 Basis Dimension        Dim             ....  685

ORBITAL ENERGIES
----------------
                 SPIN UP ORBITALS
  NO   OCC          E(Eh)            E(eV)
   0   1.0000    -254.739079     -6931.8027
   1   1.0000     -29.565596      -804.5208
   2   1.0000     -25.505863      -694.0498
   3   1.0000     -25.501194      -693.9228
   4   1.0000     -25.501043      -693.9187
   5   1.0000      -4.034942      -109.7963
   6   1.0000      -4.034870      -109.7944
   7   1.0000      -4.034718      -109.7903
   8   1.0000      -4.034505      -109.7845
   9   1.0000      -4.034094      -109.7733
  10   1.0000      -4.034017      -109.7712
  11   1.0000      -4.033862      -109.7670
  12   1.0000      -4.033831      -109.7661
  13   1.0000      -4.028508      -109.6213
  14   1.0000      -4.028486      -109.6207
  15   1.0000      -4.025953      -109.5518
  16   1.0000      -4.025797      -109.5475
  17   1.0000      -4.024292      -109.5066
  18   1.0000      -4.024269      -109.5059
  19   1.0000      -4.020659      -109.4077
  20   1.0000      -4.020514      -109.4037
  21   1.0000      -3.339109       -90.8618
  22   1.0000      -2.251862       -61.2763
  23   1.0000      -2.251679       -61.2713
  24   1.0000      -2.251269       -61.2601
  25   1.0000      -2.251144       -61.2568
  26   1.0000      -2.249809       -61.2204
  27   1.0000      -2.249653       -61.2162
  28   1.0000      -2.248738       -61.1913
  29   1.0000      -2.248712       -61.1906
  30   1.0000      -2.248554       -61.1863
  31   1.0000      -2.248522       -61.1854
  32   1.0000      -2.248231       -61.1775
  33   1.0000      -2.247923       -61.1691
  34   1.0000      -2.247282       -61.1517
  35   1.0000      -2.247100       -61.1467
  36   1.0000      -2.245808       -61.1115
  37   1.0000      -2.245780       -61.1108
  38   1.0000      -2.245522       -61.1038
  39   1.0000      -2.245206       -61.0951
  40   1.0000      -2.244694       -61.0812
  41   1.0000      -2.244572       -61.0779
  42   1.0000      -2.243942       -61.0608
  43   1.0000      -2.243878       -61.0590
  44   1.0000      -2.243700       -61.0542
  45   1.0000      -2.243425       -61.0467
  46   1.0000      -2.243315       -61.0437
  47   1.0000      -2.243297       -61.0432
  48   1.0000      -2.241993       -61.0077
  49   1.0000      -2.241915       -61.0056
  50   1.0000      -2.240900       -60.9780
  51   1.0000      -2.240052       -60.9549
  52   1.0000      -2.239861       -60.9497
  53   1.0000      -2.239657       -60.9442
  54   1.0000      -2.239555       -60.9414
  55   1.0000      -2.238106       -60.9020
  56   1.0000      -2.237883       -60.8959
  57   1.0000      -2.237604       -60.8883
  58   1.0000      -2.237593       -60.8880
  59   1.0000      -2.237234       -60.8782
  60   1.0000      -2.236863       -60.8681
  61   1.0000      -2.236450       -60.8569
  62   1.0000      -2.236337       -60.8538
  63   1.0000      -2.234343       -60.7996
  64   1.0000      -2.233832       -60.7857
  65   1.0000      -2.233795       -60.7846
  66   1.0000      -2.232944       -60.7615
  67   1.0000      -2.232886       -60.7599
  68   1.0000      -2.231017       -60.7091
  69   1.0000      -2.230505       -60.6951
  70   1.0000      -2.159398       -58.7602
  71   1.0000      -2.151953       -58.5576
  72   1.0000      -2.150323       -58.5133
  73   1.0000      -0.433670       -11.8008
  74   1.0000      -0.395153       -10.7527
  75   1.0000      -0.393042       -10.6952
  76   1.0000      -0.388539       -10.5727
  77   1.0000      -0.377323       -10.2675
  78   1.0000      -0.376767       -10.2524
  79   1.0000      -0.371406       -10.1065
  80   1.0000      -0.368547       -10.0287
  81   1.0000      -0.368384       -10.0242
  82   1.0000      -0.364969        -9.9313
  83   1.0000      -0.363153        -9.8819
  84   1.0000      -0.362142        -9.8544
  85   1.0000      -0.360503        -9.8098
  86   1.0000      -0.358873        -9.7654
  87   1.0000      -0.356989        -9.7142
  88   1.0000      -0.354971        -9.6592
  89   1.0000      -0.353351        -9.6152
  90   1.0000      -0.351941        -9.5768
  91   1.0000      -0.351620        -9.5681
  92   1.0000      -0.347914        -9.4672
  93   1.0000      -0.345794        -9.4095
  94   1.0000      -0.344899        -9.3852
  95   1.0000      -0.344258        -9.3677
  96   1.0000      -0.342234        -9.3126
  97   1.0000      -0.338497        -9.2110
  98   1.0000      -0.337884        -9.1943
  99   1.0000      -0.336635        -9.1603
 100   1.0000      -0.332585        -9.0501
 101   1.0000      -0.330457        -8.9922
 102   1.0000      -0.327473        -8.9110
 103   1.0000      -0.325786        -8.8651
 104   1.0000      -0.323819        -8.8116
 105   1.0000      -0.320297        -8.7157
 106   1.0000      -0.318153        -8.6574
 107   1.0000      -0.317270        -8.6334
 108   1.0000      -0.316846        -8.6218
 109   1.0000      -0.313967        -8.5435
 110   1.0000      -0.309926        -8.4335
 111   1.0000      -0.306543        -8.3415
 112   1.0000      -0.306446        -8.3388
 113   1.0000      -0.301389        -8.2012
 114   1.0000      -0.300001        -8.1634
 115   1.0000      -0.298056        -8.1105
 116   1.0000      -0.295900        -8.0518
 117   1.0000      -0.293552        -7.9880
 118   1.0000      -0.293097        -7.9756
 119   1.0000      -0.291319        -7.9272
 120   1.0000      -0.291011        -7.9188
 121   1.0000      -0.287969        -7.8360
 122   1.0000      -0.286026        -7.7832
 123   1.0000      -0.284140        -7.7318
 124   1.0000      -0.282026        -7.6743
 125   1.0000      -0.279596        -7.6082
 126   1.0000      -0.278292        -7.5727
 127   1.0000      -0.276323        -7.5191
 128   1.0000      -0.274497        -7.4694
 129   1.0000      -0.272439        -7.4134
 130   1.0000      -0.272178        -7.4063
 131   1.0000      -0.268869        -7.3163
 132   1.0000      -0.267242        -7.2720
 133   1.0000      -0.266370        -7.2483
 134   1.0000      -0.265290        -7.2189
 135   1.0000      -0.263622        -7.1735
 136   1.0000      -0.263374        -7.1668
 137   1.0000      -0.262557        -7.1445
 138   1.0000      -0.261790        -7.1237
 139   1.0000      -0.261640        -7.1196
 140   1.0000      -0.260990        -7.1019
 141   1.0000      -0.259968        -7.0741
 142   1.0000      -0.257425        -7.0049
 143   1.0000      -0.256861        -6.9895
 144   1.0000      -0.256303        -6.9744
 145   1.0000      -0.254608        -6.9282
 146   1.0000      -0.253960        -6.9106
 147   1.0000      -0.252998        -6.8844
 148   1.0000      -0.252274        -6.8647
 149   1.0000      -0.250732        -6.8228
 150   1.0000      -0.250309        -6.8113
 151   1.0000      -0.249576        -6.7913
 152   1.0000      -0.246662        -6.7120
 153   1.0000      -0.246564        -6.7093
 154   1.0000      -0.245541        -6.6815
 155   1.0000      -0.243375        -6.6226
 156   1.0000      -0.239452        -6.5158
 157   1.0000      -0.239420        -6.5150
 158   1.0000      -0.238454        -6.4887
 159   1.0000      -0.233964        -6.3665
 160   1.0000      -0.229839        -6.2542
 161   1.0000      -0.225190        -6.1277
 162   1.0000      -0.216667        -5.8958
 163   1.0000      -0.215699        -5.8695
 164   1.0000      -0.209110        -5.6902
 165   1.0000      -0.201917        -5.4945
 166   0.0000      -0.195287        -5.3140
 167   0.0000      -0.155092        -4.2203
 168   0.0000      -0.145638        -3.9630
 169   0.0000      -0.134958        -3.6724
 170   0.0000      -0.128233        -3.4894

                 SPIN DOWN ORBITALS
  NO   OCC          E(Eh)            E(eV)
   0   1.0000    -254.738579     -6931.7891
   1   1.0000     -29.519948      -803.2786
   2   1.0000     -25.472396      -693.1391
   3   1.0000     -25.468677      -693.0379
   4   1.0000     -25.463711      -692.9028
   5   1.0000      -4.034818      -109.7930
   6   1.0000      -4.034677      -109.7891
   7   1.0000      -4.034638      -109.7881
   8   1.0000      -4.034593      -109.7869
   9   1.0000      -4.034463      -109.7833
  10   1.0000      -4.034436      -109.7826
  11   1.0000      -4.034024      -109.7714
  12   1.0000      -4.033946      -109.7692
  13   1.0000      -4.028841      -109.6303
  14   1.0000      -4.028826      -109.6299
  15   1.0000      -4.025654      -109.5436
  16   1.0000      -4.025496      -109.5393
  17   1.0000      -4.024740      -109.5188
  18   1.0000      -4.024724      -109.5183
  19   1.0000      -4.020851      -109.4129
  20   1.0000      -4.020706      -109.4090
  21   1.0000      -3.234032       -88.0025
  22   1.0000      -2.251909       -61.2776
  23   1.0000      -2.251739       -61.2729
  24   1.0000      -2.251087       -61.2552
  25   1.0000      -2.250957       -61.2516
  26   1.0000      -2.249643       -61.2159
  27   1.0000      -2.249540       -61.2131
  28   1.0000      -2.249172       -61.2031
  29   1.0000      -2.249029       -61.1992
  30   1.0000      -2.248695       -61.1901
  31   1.0000      -2.248567       -61.1866
  32   1.0000      -2.248171       -61.1758
  33   1.0000      -2.247859       -61.1673
  34   1.0000      -2.247247       -61.1507
  35   1.0000      -2.247098       -61.1466
  36   1.0000      -2.246333       -61.1258
  37   1.0000      -2.246290       -61.1247
  38   1.0000      -2.245673       -61.1079
  39   1.0000      -2.245217       -61.0955
  40   1.0000      -2.244933       -61.0877
  41   1.0000      -2.244564       -61.0777
  42   1.0000      -2.244187       -61.0674
  43   1.0000      -2.244134       -61.0660
  44   1.0000      -2.243852       -61.0583
  45   1.0000      -2.243585       -61.0510
  46   1.0000      -2.243460       -61.0477
  47   1.0000      -2.243447       -61.0473
  48   1.0000      -2.242469       -61.0207
  49   1.0000      -2.242382       -61.0183
  50   1.0000      -2.240746       -60.9738
  51   1.0000      -2.240000       -60.9535
  52   1.0000      -2.239967       -60.9526
  53   1.0000      -2.239471       -60.9391
  54   1.0000      -2.239178       -60.9311
  55   1.0000      -2.238670       -60.9173
  56   1.0000      -2.238426       -60.9107
  57   1.0000      -2.237972       -60.8983
  58   1.0000      -2.237947       -60.8976
  59   1.0000      -2.237217       -60.8778
  60   1.0000      -2.236949       -60.8705
  61   1.0000      -2.236277       -60.8522
  62   1.0000      -2.236190       -60.8498
  63   1.0000      -2.234709       -60.8095
  64   1.0000      -2.234337       -60.7994
  65   1.0000      -2.234295       -60.7983
  66   1.0000      -2.233078       -60.7651
  67   1.0000      -2.233021       -60.7636
  68   1.0000      -2.231174       -60.7133
  69   1.0000      -2.230634       -60.6986
  70   1.0000      -2.058163       -56.0055
  71   1.0000      -2.054069       -55.8940
  72   1.0000      -2.039973       -55.5105
  73   1.0000      -0.431030       -11.7289
  74   1.0000      -0.395466       -10.7612
  75   1.0000      -0.392418       -10.6782
  76   1.0000      -0.388650       -10.5757
  77   1.0000      -0.375429       -10.2159
  78   1.0000      -0.373117       -10.1530
  79   1.0000      -0.370901       -10.0927
  80   1.0000      -0.368464       -10.0264
  81   1.0000      -0.367934       -10.0120
  82   1.0000      -0.363794        -9.8994
  83   1.0000      -0.363530        -9.8922
  84   1.0000      -0.361460        -9.8358
  85   1.0000      -0.360152        -9.8002
  86   1.0000      -0.357920        -9.7395
  87   1.0000      -0.354606        -9.6493
  88   1.0000      -0.354351        -9.6424
  89   1.0000      -0.352560        -9.5937
  90   1.0000      -0.352004        -9.5785
  91   1.0000      -0.350596        -9.5402
  92   1.0000      -0.347631        -9.4595
  93   1.0000      -0.346549        -9.4301
  94   1.0000      -0.345259        -9.3950
  95   1.0000      -0.344454        -9.3731
  96   1.0000      -0.342503        -9.3200
  97   1.0000      -0.338159        -9.2018
  98   1.0000      -0.337644        -9.1878
  99   1.0000      -0.336790        -9.1645
 100   1.0000      -0.333122        -9.0647
 101   1.0000      -0.328152        -8.9295
 102   1.0000      -0.327776        -8.9192
 103   1.0000      -0.325717        -8.8632
 104   1.0000      -0.322667        -8.7802
 105   1.0000      -0.320838        -8.7305
 106   1.0000      -0.317228        -8.6322
 107   1.0000      -0.317001        -8.6260
 108   1.0000      -0.316656        -8.6167
 109   1.0000      -0.311863        -8.4862
 110   1.0000      -0.310575        -8.4512
 111   1.0000      -0.305938        -8.3250
 112   1.0000      -0.305514        -8.3134
 113   1.0000      -0.298869        -8.1327
 114   1.0000      -0.296890        -8.0788
 115   1.0000      -0.296498        -8.0681
 116   1.0000      -0.295063        -8.0291
 117   1.0000      -0.293158        -7.9772
 118   1.0000      -0.291593        -7.9346
 119   1.0000      -0.290497        -7.9048
 120   1.0000      -0.290438        -7.9032
 121   1.0000      -0.287885        -7.8338
 122   1.0000      -0.285718        -7.7748
 123   1.0000      -0.282625        -7.6906
 124   1.0000      -0.280941        -7.6448
 125   1.0000      -0.279781        -7.6132
 126   1.0000      -0.277862        -7.5610
 127   1.0000      -0.276729        -7.5302
 128   1.0000      -0.274795        -7.4775
 129   1.0000      -0.272829        -7.4241
 130   1.0000      -0.271670        -7.3925
 131   1.0000      -0.269379        -7.3302
 132   1.0000      -0.267121        -7.2687
 133   1.0000      -0.267003        -7.2655
 134   1.0000      -0.265322        -7.2198
 135   1.0000      -0.263963        -7.1828
 136   1.0000      -0.263871        -7.1803
 137   1.0000      -0.262631        -7.1466
 138   1.0000      -0.261834        -7.1249
 139   1.0000      -0.261201        -7.1076
 140   1.0000      -0.259549        -7.0627
 141   1.0000      -0.259534        -7.0623
 142   1.0000      -0.257814        -7.0155
 143   1.0000      -0.255862        -6.9624
 144   1.0000      -0.255570        -6.9544
 145   1.0000      -0.253360        -6.8943
 146   1.0000      -0.252912        -6.8821
 147   1.0000      -0.252595        -6.8735
 148   1.0000      -0.251079        -6.8322
 149   1.0000      -0.249354        -6.7853
 150   1.0000      -0.248430        -6.7601
 151   1.0000      -0.247309        -6.7296
 152   1.0000      -0.245973        -6.6933
 153   1.0000      -0.243763        -6.6331
 154   1.0000      -0.240067        -6.5325
 155   1.0000      -0.240003        -6.5308
 156   1.0000      -0.234424        -6.3790
 157   1.0000      -0.224459        -6.1078
 158   1.0000      -0.221277        -6.0213
 159   1.0000      -0.220875        -6.0103
 160   1.0000      -0.216038        -5.8787
 161   1.0000      -0.209506        -5.7010
 162   1.0000      -0.181050        -4.9266
 163   1.0000      -0.173858        -4.7309
 164   0.0000      -0.153637        -4.1807
 165   0.0000      -0.151543        -4.1237
 166   0.0000      -0.147740        -4.0202
 167   0.0000      -0.143784        -3.9126
 168   0.0000      -0.143339        -3.9004

MULLIKEN ATOMIC CHARGES AND SPIN POPULATIONS
--------------------------------------------
   0 Au:    0.244553   -0.031551
   1 Au:    0.222641   -0.004527
   2 Au:   -0.522411   -0.017905
   3 Au:    0.325529    0.026685
   4 Au:    0.258078   -0.017889
   5 Au:    0.216854   -0.084558
   6 Au:    0.188592   -0.036479
   7 Au:    0.220557   -0.003844
   8 Au:    0.176366   -0.098529
   9 Au:    0.220070   -0.083243
  10 Au:   -0.533090   -0.020425
  11 Au:    0.244202   -0.031732
  12 Au:    0.257958   -0.017738
  13 Au:    0.182858   -0.037212
  14 Au:    0.174299   -0.098206
  15 Au:    0.326057    0.025876
  16 Fe:   -2.203114    2.531278
Sum of atomic charges         :   -0.0000000

LOEWDIN ATOMIC CHARGES AND SPIN POPULATIONS
-------------------------------------------
   0 Au:    0.018542   -0.036009
   1 Au:    0.062456   -0.014503
   2 Au:   -0.051784   -0.013526
   3 Au:    0.080649    0.003139
   4 Au:    0.045565   -0.024116
   5 Au:    0.029710   -0.068855
   6 Au:    0.017499   -0.053539
   7 Au:    0.062009   -0.014391
   8 Au:    0.054987   -0.074394
   9 Au:    0.030496   -0.068684
  10 Au:   -0.052873   -0.013962
  11 Au:    0.018395   -0.036005
  12 Au:    0.045423   -0.024316
  13 Au:    0.016542   -0.053264
  14 Au:    0.054461   -0.074065
  15 Au:    0.080237    0.002859
  16 Fe:   -0.512315    2.563633

  Mayer bond orders larger than 0.100000
B(  0-Au,  2-Au) :   0.2171 B(  0-Au,  5-Au) :   0.2424 B(  0-Au,  6-Au) :   0.2406
B(  0-Au, 10-Au) :   0.3321 B(  0-Au, 11-Au) :   0.3541 B(  1-Au,  2-Au) :   0.1307
B(  1-Au,  3-Au) :   0.1927 B(  1-Au,  4-Au) :   0.2250 B(  1-Au, 13-Au) :   0.2700
B(  1-Au, 14-Au) :   0.2023 B(  1-Au, 16-Fe) :   0.4458 B(  2-Au,  4-Au) :   0.2972
B(  2-Au,  5-Au) :   0.3952 B(  2-Au, 10-Au) :   0.1235 B(  2-Au, 11-Au) :   0.3297
B(  2-Au, 13-Au) :   0.3947 B(  2-Au, 16-Fe) :   0.3927 B(  3-Au,  4-Au) :   0.2104
B(  3-Au,  8-Au) :   0.1790 B(  3-Au, 15-Au) :   0.2428 B(  3-Au, 16-Fe) :   0.4088
B(  4-Au,  5-Au) :   0.3044 B(  4-Au,  8-Au) :   0.2092 B(  4-Au, 16-Fe) :   0.2887
B(  5-Au,  6-Au) :   0.2433 B(  5-Au,  8-Au) :   0.1727 B(  5-Au, 16-Fe) :   0.1233
B(  6-Au,  7-Au) :   0.2690 B(  6-Au,  8-Au) :   0.2155 B(  6-Au, 10-Au) :   0.3961
B(  6-Au, 16-Fe) :   0.1746 B(  7-Au,  8-Au) :   0.2019 B(  7-Au, 10-Au) :   0.1325
B(  7-Au, 12-Au) :   0.2245 B(  7-Au, 15-Au) :   0.1941 B(  7-Au, 16-Fe) :   0.4459
B(  8-Au, 16-Fe) :   0.4933 B(  9-Au, 10-Au) :   0.3983 B(  9-Au, 11-Au) :   0.2419
B(  9-Au, 12-Au) :   0.3042 B(  9-Au, 13-Au) :   0.2438 B(  9-Au, 14-Au) :   0.1702
B(  9-Au, 16-Fe) :   0.1214 B( 10-Au, 11-Au) :   0.2195 B( 10-Au, 12-Au) :   0.2989
B( 10-Au, 16-Fe) :   0.3923 B( 11-Au, 13-Au) :   0.2413 B( 12-Au, 14-Au) :   0.2111
B( 12-Au, 15-Au) :   0.2106 B( 12-Au, 16-Fe) :   0.2856 B( 13-Au, 14-Au) :   0.2166
B( 13-Au, 16-Fe) :   0.1761 B( 14-Au, 15-Au) :   0.1811 B( 14-Au, 16-Fe) :   0.4926
B( 15-Au, 16-Fe) :   0.4061

FINAL SINGLE POINT ENERGY     -3436.730660989906

DIPOLE MOMENT
-------------
                                X             Y             Z
Electronic contribution:     22.86647      16.50003      -8.58011
Nuclear contribution   :    -23.21146     -16.74584       8.70709
                        -----------------------------------------
Total Dipole Moment    :     -0.34499      -0.24581       0.12698
                        -----------------------------------------
Magnitude (a.u.)       :      0.44222
Magnitude (Debye)      :      1.12404

Rotational constants in cm-1:     0.000887     0.000873     0.000760
Rotational constants in MHz :    26.595397    26.169594    22.780533

                             ****ORCA TERMINATED NORMALLY****
TOTAL RUN TIME: 0 days 0 hours 9 minutes 53 seconds 612 msec
