                         Program Version 5.0.3 -  RELEASE  -
|  1> !R2SCAN def2-TZVP VERYSLOWCONV
|  2>
|  3> %scf
|  4>   AutoTRAHIter 200
|  5>   maxiter 400
|  6> end
|  7>
|  8> %pal nprocs 6 end
|  9>
| 10> *xyzfile 0 5 pbe.xyz
| 11>
| 12> $new_job
| 13>
| 14> !R2SCAN def2-TZVP VERYSLOWCONV
| 15> %scf
| 16>   AutoTRAHIter 200
| 17>   maxiter 400
| 18> end
| 19>
| 20>
| 21> %pal nprocs 6 end
| 22>
| 23> *xyzfile 0 3 pbe.xyz
| 24>
| 25>
| 26>
| 27>
| 28>
| 29>                          ****END OF INPUT****
 Total Charge           Charge          ....    0
 Multiplicity           Mult            ....    5
 Number of Electrons    NEL             ....  330
FINAL SINGLE POINT ENERGY     -3437.304769919108

CARTESIAN COORDINATES (ANGSTROEM)
---------------------------------
  Au     9.333145   10.793707    6.673820
  Au     7.760018    5.334774    7.079859
  Au     9.353804    7.916528    7.103730
  Au     5.426843    5.984503    8.523179
  Au     7.907753    6.995478    9.313570
  Au     8.643207    9.630636    9.138655
  Au     6.714626   11.020732    7.653510
  Au     4.559524    9.594267    6.703135
  Au     5.758053    8.786962    9.081485
  Au     7.560189    8.097144    3.205483
  Au     7.126545   10.003007    5.144445
  Au     9.815626    9.050737    4.585557
  Au     5.035708    8.384437    4.234636
  Au     9.021185    6.374820    4.864934
  Au     6.242590    5.919735    4.821859
  Au     3.987018    6.862124    6.329075
  Fe     6.533906    7.734321    6.756053

 Multiplicity           Mult            ....    3
 Number of Electrons    NEL             ....  330
 Basis Dimension        Dim             ....  685

ORBITAL ENERGIES
----------------
                 SPIN UP ORBITALS
  NO   OCC          E(Eh)            E(eV)
   0   1.0000    -255.613682     -6955.6019
   1   1.0000     -29.897982      -813.5655
   2   1.0000     -25.732695      -700.2222
   3   1.0000     -25.729419      -700.1331
   4   1.0000     -25.729209      -700.1274
   5   1.0000      -4.125515      -112.2610
   6   1.0000      -4.125431      -112.2587
   7   1.0000      -4.125249      -112.2537
   8   1.0000      -4.125028      -112.2477
   9   1.0000      -4.124634      -112.2370
  10   1.0000      -4.124557      -112.2349
  11   1.0000      -4.124336      -112.2289
  12   1.0000      -4.124294      -112.2278
  13   1.0000      -4.119123      -112.0870
  14   1.0000      -4.119121      -112.0870
  15   1.0000      -4.116336      -112.0112
  16   1.0000      -4.116164      -112.0065
  17   1.0000      -4.114566      -111.9630
  18   1.0000      -4.114543      -111.9624
  19   1.0000      -4.110816      -111.8610
  20   1.0000      -4.110650      -111.8565
  21   1.0000      -3.470891       -94.4478
  22   1.0000      -2.315019       -62.9949
  23   1.0000      -2.314828       -62.9897
  24   1.0000      -2.314698       -62.9861
  25   1.0000      -2.314556       -62.9823
  26   1.0000      -2.313191       -62.9451
  27   1.0000      -2.313041       -62.9410
  28   1.0000      -2.312045       -62.9139
  29   1.0000      -2.312020       -62.9133
  30   1.0000      -2.311868       -62.9091
  31   1.0000      -2.311801       -62.9073
  32   1.0000      -2.311525       -62.8998
  33   1.0000      -2.311198       -62.8909
  34   1.0000      -2.310599       -62.8746
  35   1.0000      -2.310421       -62.8697
  36   1.0000      -2.309139       -62.8349
  37   1.0000      -2.309116       -62.8342
  38   1.0000      -2.308919       -62.8289
  39   1.0000      -2.308624       -62.8209
  40   1.0000      -2.308019       -62.8044
  41   1.0000      -2.307974       -62.8032
  42   1.0000      -2.307312       -62.7851
  43   1.0000      -2.307223       -62.7827
  44   1.0000      -2.307092       -62.7792
  45   1.0000      -2.306976       -62.7760
  46   1.0000      -2.306503       -62.7631
  47   1.0000      -2.306473       -62.7623
  48   1.0000      -2.305199       -62.7276
  49   1.0000      -2.305113       -62.7253
  50   1.0000      -2.303998       -62.6950
  51   1.0000      -2.303115       -62.6709
  52   1.0000      -2.303054       -62.6693
  53   1.0000      -2.302684       -62.6592
  54   1.0000      -2.302590       -62.6567
  55   1.0000      -2.301183       -62.6184
  56   1.0000      -2.301120       -62.6166
  57   1.0000      -2.301039       -62.6145
  58   1.0000      -2.300917       -62.6111
  59   1.0000      -2.300210       -62.5919
  60   1.0000      -2.299745       -62.5792
  61   1.0000      -2.299600       -62.5753
  62   1.0000      -2.299483       -62.5721
  63   1.0000      -2.297135       -62.5082
  64   1.0000      -2.297051       -62.5059
  65   1.0000      -2.296869       -62.5010
  66   1.0000      -2.295882       -62.4741
  67   1.0000      -2.295829       -62.4727
  68   1.0000      -2.294053       -62.4244
  69   1.0000      -2.293561       -62.4110
  70   1.0000      -2.240707       -60.9727
  71   1.0000      -2.236805       -60.8665
  72   1.0000      -2.234445       -60.8023
  73   1.0000      -0.437608       -11.9079
  74   1.0000      -0.400225       -10.8907
  75   1.0000      -0.398207       -10.8358
  76   1.0000      -0.393197       -10.6994
  77   1.0000      -0.386709       -10.5229
  78   1.0000      -0.384891       -10.4734
  79   1.0000      -0.379902       -10.3377
  80   1.0000      -0.376272       -10.2389
  81   1.0000      -0.376088       -10.2339
  82   1.0000      -0.374043       -10.1782
  83   1.0000      -0.371719       -10.1150
  84   1.0000      -0.369858       -10.0644
  85   1.0000      -0.369440       -10.0530
  86   1.0000      -0.367420        -9.9980
  87   1.0000      -0.366396        -9.9701
  88   1.0000      -0.363931        -9.9031
  89   1.0000      -0.362688        -9.8692
  90   1.0000      -0.360636        -9.8134
  91   1.0000      -0.360369        -9.8061
  92   1.0000      -0.356873        -9.7110
  93   1.0000      -0.354800        -9.6546
  94   1.0000      -0.353732        -9.6255
  95   1.0000      -0.353179        -9.6105
  96   1.0000      -0.351032        -9.5521
  97   1.0000      -0.347656        -9.4602
  98   1.0000      -0.346807        -9.4371
  99   1.0000      -0.345459        -9.4004
 100   1.0000      -0.341342        -9.2884
 101   1.0000      -0.339448        -9.2368
 102   1.0000      -0.336334        -9.1521
 103   1.0000      -0.334356        -9.0983
 104   1.0000      -0.332942        -9.0598
 105   1.0000      -0.328823        -8.9477
 106   1.0000      -0.326470        -8.8837
 107   1.0000      -0.325878        -8.8676
 108   1.0000      -0.325290        -8.8516
 109   1.0000      -0.322395        -8.7728
 110   1.0000      -0.318315        -8.6618
 111   1.0000      -0.315497        -8.5851
 112   1.0000      -0.314838        -8.5672
 113   1.0000      -0.310702        -8.4546
 114   1.0000      -0.309039        -8.4094
 115   1.0000      -0.306444        -8.3388
 116   1.0000      -0.304109        -8.2752
 117   1.0000      -0.301732        -8.2106
 118   1.0000      -0.301432        -8.2024
 119   1.0000      -0.299702        -8.1553
 120   1.0000      -0.299209        -8.1419
 121   1.0000      -0.296545        -8.0694
 122   1.0000      -0.294961        -8.0263
 123   1.0000      -0.292777        -7.9669
 124   1.0000      -0.291086        -7.9208
 125   1.0000      -0.288166        -7.8414
 126   1.0000      -0.286393        -7.7931
 127   1.0000      -0.284263        -7.7352
 128   1.0000      -0.282506        -7.6874
 129   1.0000      -0.280404        -7.6302
 130   1.0000      -0.280207        -7.6248
 131   1.0000      -0.276776        -7.5314
 132   1.0000      -0.275019        -7.4837
 133   1.0000      -0.274509        -7.4698
 134   1.0000      -0.273616        -7.4455
 135   1.0000      -0.273400        -7.4396
 136   1.0000      -0.271361        -7.3841
 137   1.0000      -0.270990        -7.3740
 138   1.0000      -0.269932        -7.3452
 139   1.0000      -0.269727        -7.3396
 140   1.0000      -0.269181        -7.3248
 141   1.0000      -0.268915        -7.3176
 142   1.0000      -0.267088        -7.2678
 143   1.0000      -0.265099        -7.2137
 144   1.0000      -0.264585        -7.1997
 145   1.0000      -0.262685        -7.1480
 146   1.0000      -0.261980        -7.1288
 147   1.0000      -0.260205        -7.0805
 148   1.0000      -0.259784        -7.0691
 149   1.0000      -0.258417        -7.0319
 150   1.0000      -0.257232        -6.9996
 151   1.0000      -0.256917        -6.9911
 152   1.0000      -0.254073        -6.9137
 153   1.0000      -0.253498        -6.8980
 154   1.0000      -0.252579        -6.8730
 155   1.0000      -0.250168        -6.8074
 156   1.0000      -0.249214        -6.7814
 157   1.0000      -0.246132        -6.6976
 158   1.0000      -0.245055        -6.6683
 159   1.0000      -0.240264        -6.5379
 160   1.0000      -0.235710        -6.4140
 161   1.0000      -0.228648        -6.2218
 162   1.0000      -0.218865        -5.9556
 163   1.0000      -0.218406        -5.9431
 164   1.0000      -0.212535        -5.7834
 165   1.0000      -0.203812        -5.5460
 166   0.0000      -0.194147        -5.2830
 167   0.0000      -0.150768        -4.1026
 168   0.0000      -0.142175        -3.8688
 169   0.0000      -0.131368        -3.5747
 170   0.0000      -0.123935        -3.3724

                 SPIN DOWN ORBITALS
  NO   OCC          E(Eh)            E(eV)
   0   1.0000    -255.612939     -6955.5817
   1   1.0000     -29.836392      -811.8895
   2   1.0000     -25.687046      -698.9801
   3   1.0000     -25.684317      -698.9058
   4   1.0000     -25.679048      -698.7624
   5   1.0000      -4.125588      -112.2630
   6   1.0000      -4.125415      -112.2583
   7   1.0000      -4.125384      -112.2574
   8   1.0000      -4.125327      -112.2559
   9   1.0000      -4.125091      -112.2494
  10   1.0000      -4.125052      -112.2484
  11   1.0000      -4.124626      -112.2368
  12   1.0000      -4.124550      -112.2347
  13   1.0000      -4.119554      -112.0988
  14   1.0000      -4.119549      -112.0986
  15   1.0000      -4.116099      -112.0048
  16   1.0000      -4.115924      -112.0000
  17   1.0000      -4.115200      -111.9803
  18   1.0000      -4.115182      -111.9798
  19   1.0000      -4.111060      -111.8676
  20   1.0000      -4.110894      -111.8631
  21   1.0000      -3.326812       -90.5271
  22   1.0000      -2.315474       -63.0072
  23   1.0000      -2.315288       -63.0022
  24   1.0000      -2.314600       -62.9835
  25   1.0000      -2.314456       -62.9795
  26   1.0000      -2.313152       -62.9441
  27   1.0000      -2.313049       -62.9413
  28   1.0000      -2.312595       -62.9289
  29   1.0000      -2.312430       -62.9244
  30   1.0000      -2.312197       -62.9181
  31   1.0000      -2.312069       -62.9146
  32   1.0000      -2.311514       -62.8995
  33   1.0000      -2.311180       -62.8904
  34   1.0000      -2.310763       -62.8791
  35   1.0000      -2.310589       -62.8743
  36   1.0000      -2.309746       -62.8514
  37   1.0000      -2.309656       -62.8489
  38   1.0000      -2.309082       -62.8333
  39   1.0000      -2.308672       -62.8222
  40   1.0000      -2.308297       -62.8120
  41   1.0000      -2.308030       -62.8047
  42   1.0000      -2.307559       -62.7919
  43   1.0000      -2.307506       -62.7904
  44   1.0000      -2.307436       -62.7885
  45   1.0000      -2.307234       -62.7830
  46   1.0000      -2.306707       -62.7687
  47   1.0000      -2.306681       -62.7680
  48   1.0000      -2.305842       -62.7451
  49   1.0000      -2.305746       -62.7425
  50   1.0000      -2.303913       -62.6927
  51   1.0000      -2.303157       -62.6721
  52   1.0000      -2.303096       -62.6704
  53   1.0000      -2.302569       -62.6561
  54   1.0000      -2.302352       -62.6502
  55   1.0000      -2.301949       -62.6392
  56   1.0000      -2.301764       -62.6342
  57   1.0000      -2.301561       -62.6287
  58   1.0000      -2.301525       -62.6277
  59   1.0000      -2.300130       -62.5897
  60   1.0000      -2.300005       -62.5863
  61   1.0000      -2.299452       -62.5713
  62   1.0000      -2.299381       -62.5693
  63   1.0000      -2.297675       -62.5229
  64   1.0000      -2.297632       -62.5217
  65   1.0000      -2.297289       -62.5124
  66   1.0000      -2.296108       -62.4803
  67   1.0000      -2.296053       -62.4788
  68   1.0000      -2.294267       -62.4302
  69   1.0000      -2.293720       -62.4153
  70   1.0000      -2.102939       -57.2239
  71   1.0000      -2.100884       -57.1680
  72   1.0000      -2.087288       -56.7980
  73   1.0000      -0.435373       -11.8471
  74   1.0000      -0.401037       -10.9128
  75   1.0000      -0.397962       -10.8291
  76   1.0000      -0.393624       -10.7110
  77   1.0000      -0.383331       -10.4310
  78   1.0000      -0.380705       -10.3595
  79   1.0000      -0.379738       -10.3332
  80   1.0000      -0.376580       -10.2473
  81   1.0000      -0.375585       -10.2202
  82   1.0000      -0.372667       -10.1408
  83   1.0000      -0.372454       -10.1350
  84   1.0000      -0.369463       -10.0536
  85   1.0000      -0.368996       -10.0409
  86   1.0000      -0.366146        -9.9633
  87   1.0000      -0.363772        -9.8987
  88   1.0000      -0.363331        -9.8867
  89   1.0000      -0.361199        -9.8287
  90   1.0000      -0.360855        -9.8194
  91   1.0000      -0.359567        -9.7843
  92   1.0000      -0.356431        -9.6990
  93   1.0000      -0.355676        -9.6784
  94   1.0000      -0.354180        -9.6377
  95   1.0000      -0.353610        -9.6222
  96   1.0000      -0.351369        -9.5612
  97   1.0000      -0.347363        -9.4522
  98   1.0000      -0.346681        -9.4337
  99   1.0000      -0.345681        -9.4065
 100   1.0000      -0.342163        -9.3107
 101   1.0000      -0.336837        -9.1658
 102   1.0000      -0.336649        -9.1607
 103   1.0000      -0.334402        -9.0996
 104   1.0000      -0.331221        -9.0130
 105   1.0000      -0.329747        -8.9729
 106   1.0000      -0.326019        -8.8714
 107   1.0000      -0.325505        -8.8574
 108   1.0000      -0.325314        -8.8523
 109   1.0000      -0.320922        -8.7327
 110   1.0000      -0.319202        -8.6859
 111   1.0000      -0.314343        -8.5537
 112   1.0000      -0.313976        -8.5437
 113   1.0000      -0.307538        -8.3685
 114   1.0000      -0.305251        -8.3063
 115   1.0000      -0.304872        -8.2960
 116   1.0000      -0.303388        -8.2556
 117   1.0000      -0.301487        -8.2039
 118   1.0000      -0.299911        -8.1610
 119   1.0000      -0.298940        -8.1346
 120   1.0000      -0.298465        -8.1216
 121   1.0000      -0.296239        -8.0611
 122   1.0000      -0.294167        -8.0047
 123   1.0000      -0.290866        -7.9149
 124   1.0000      -0.289570        -7.8796
 125   1.0000      -0.287993        -7.8367
 126   1.0000      -0.286132        -7.7860
 127   1.0000      -0.284800        -7.7498
 128   1.0000      -0.282881        -7.6976
 129   1.0000      -0.280829        -7.6417
 130   1.0000      -0.279548        -7.6069
 131   1.0000      -0.277618        -7.5544
 132   1.0000      -0.275026        -7.4838
 133   1.0000      -0.274987        -7.4828
 134   1.0000      -0.273015        -7.4291
 135   1.0000      -0.271813        -7.3964
 136   1.0000      -0.271734        -7.3943
 137   1.0000      -0.270504        -7.3608
 138   1.0000      -0.269563        -7.3352
 139   1.0000      -0.269151        -7.3240
 140   1.0000      -0.267218        -7.2714
 141   1.0000      -0.266841        -7.2611
 142   1.0000      -0.265412        -7.2222
 143   1.0000      -0.263424        -7.1681
 144   1.0000      -0.262815        -7.1516
 145   1.0000      -0.260573        -7.0905
 146   1.0000      -0.260205        -7.0805
 147   1.0000      -0.259990        -7.0747
 148   1.0000      -0.257823        -7.0157
 149   1.0000      -0.255719        -6.9585
 150   1.0000      -0.255165        -6.9434
 151   1.0000      -0.254208        -6.9174
 152   1.0000      -0.253191        -6.8897
 153   1.0000      -0.250749        -6.8232
 154   1.0000      -0.246702        -6.7131
 155   1.0000      -0.246653        -6.7118
 156   1.0000      -0.240706        -6.5500
 157   1.0000      -0.227278        -6.1846
 158   1.0000      -0.223444        -6.0802
 159   1.0000      -0.223028        -6.0689
 160   1.0000      -0.218349        -5.9416
 161   1.0000      -0.210413        -5.7256
 162   1.0000      -0.181521        -4.9394
 163   1.0000      -0.176136        -4.7929
 164   0.0000      -0.149489        -4.0678
 165   0.0000      -0.140550        -3.8246
 166   0.0000      -0.138587        -3.7711
 167   0.0000      -0.131939        -3.5902
 168   0.0000      -0.129910        -3.5350

MULLIKEN ATOMIC CHARGES AND SPIN POPULATIONS
--------------------------------------------
   0 Au:    0.218385   -0.031533
   1 Au:    0.203161   -0.023968
   2 Au:   -0.481737   -0.021984
   3 Au:    0.282340    0.021749
   4 Au:    0.238595   -0.017250
   5 Au:    0.198882   -0.116718
   6 Au:    0.177551   -0.031937
   7 Au:    0.201428   -0.023743
   8 Au:    0.167744   -0.107228
   9 Au:    0.201955   -0.115501
  10 Au:   -0.491820   -0.023773
  11 Au:    0.217557   -0.032845
  12 Au:    0.238614   -0.017188
  13 Au:    0.171988   -0.032239
  14 Au:    0.165998   -0.107161
  15 Au:    0.282745    0.020877
  16 Fe:   -1.993386    2.660441
Sum of atomic charges         :   -0.0000000

LOEWDIN ATOMIC CHARGES AND SPIN POPULATIONS
-------------------------------------------
   0 Au:    0.016651   -0.038015
   1 Au:    0.058438   -0.028488
   2 Au:   -0.053936   -0.022432
   3 Au:    0.073866   -0.002841
   4 Au:    0.042951   -0.029258
   5 Au:    0.027001   -0.083324
   6 Au:    0.016458   -0.057287
   7 Au:    0.057976   -0.028486
   8 Au:    0.052058   -0.076273
   9 Au:    0.027757   -0.083091
  10 Au:   -0.054930   -0.022650
  11 Au:    0.016330   -0.038431
  12 Au:    0.042843   -0.029511
  13 Au:    0.015509   -0.057029
  14 Au:    0.051569   -0.076086
  15 Au:    0.073503   -0.003292
  16 Fe:   -0.464043    2.676495

  Mayer bond orders larger than 0.100000
B(  0-Au,  2-Au) :   0.2002 B(  0-Au,  5-Au) :   0.2286 B(  0-Au,  6-Au) :   0.2305
B(  0-Au, 10-Au) :   0.3261 B(  0-Au, 11-Au) :   0.3395 B(  1-Au,  2-Au) :   0.1142
B(  1-Au,  3-Au) :   0.1865 B(  1-Au,  4-Au) :   0.2078 B(  1-Au, 13-Au) :   0.2597
B(  1-Au, 14-Au) :   0.2067 B(  1-Au, 16-Fe) :   0.4359 B(  2-Au,  4-Au) :   0.2884
B(  2-Au,  5-Au) :   0.3888 B(  2-Au, 11-Au) :   0.3237 B(  2-Au, 13-Au) :   0.3885
B(  2-Au, 16-Fe) :   0.3788 B(  3-Au,  4-Au) :   0.2031 B(  3-Au,  8-Au) :   0.1705
B(  3-Au, 15-Au) :   0.2301 B(  3-Au, 16-Fe) :   0.3937 B(  4-Au,  5-Au) :   0.2954
B(  4-Au,  8-Au) :   0.1898 B(  4-Au, 16-Fe) :   0.2776 B(  5-Au,  6-Au) :   0.2202
B(  5-Au,  8-Au) :   0.1535 B(  5-Au, 16-Fe) :   0.1106 B(  6-Au,  7-Au) :   0.2587
B(  6-Au,  8-Au) :   0.2014 B(  6-Au, 10-Au) :   0.3899 B(  6-Au, 16-Fe) :   0.1669
B(  7-Au,  8-Au) :   0.2066 B(  7-Au, 10-Au) :   0.1156 B(  7-Au, 12-Au) :   0.2071
B(  7-Au, 15-Au) :   0.1880 B(  7-Au, 16-Fe) :   0.4360 B(  8-Au, 16-Fe) :   0.4804
B(  9-Au, 10-Au) :   0.3918 B(  9-Au, 11-Au) :   0.2280 B(  9-Au, 12-Au) :   0.2953
B(  9-Au, 13-Au) :   0.2206 B(  9-Au, 14-Au) :   0.1512 B(  9-Au, 16-Fe) :   0.1091
B( 10-Au, 11-Au) :   0.2023 B( 10-Au, 12-Au) :   0.2902 B( 10-Au, 16-Fe) :   0.3784
B( 11-Au, 13-Au) :   0.2313 B( 12-Au, 14-Au) :   0.1918 B( 12-Au, 15-Au) :   0.2032
B( 12-Au, 16-Fe) :   0.2746 B( 13-Au, 14-Au) :   0.2025 B( 13-Au, 16-Fe) :   0.1682
B( 14-Au, 15-Au) :   0.1727 B( 14-Au, 16-Fe) :   0.4799 B( 15-Au, 16-Fe) :   0.3909

FINAL SINGLE POINT ENERGY     -3437.272208984695

DIPOLE MOMENT
-------------
                                X             Y             Z
Electronic contribution:     22.85916      16.49566      -8.57738
Nuclear contribution   :    -23.21146     -16.74584       8.70709
                        -----------------------------------------
Total Dipole Moment    :     -0.35230      -0.25018       0.12972
                        -----------------------------------------
Magnitude (a.u.)       :      0.45115
Magnitude (Debye)      :      1.14673

Rotational constants in cm-1:     0.000887     0.000873     0.000760
Rotational constants in MHz :    26.595397    26.169594    22.780533

                             ****ORCA TERMINATED NORMALLY****
TOTAL RUN TIME: 0 days 0 hours 15 minutes 38 seconds 0 msec
