                         Program Version 5.0.3 -  RELEASE  -
|  1> !CASSCF def2-TZVP def2-TZVP/C
|  2> !MOREAD RIJCOSX
|  3> %maxcore 6000
|  4> %moinp "pbe.qro"
|  5> %pal nprocs 16 end
|  6>
|  7> %casscf
|  8>  mult 6,4
|  9>  bweight 1,1
| 10>  nroots 1,24
| 11>  nel 5
| 12>  norb 5
| 13> end
| 14>
| 15>
| 16> *xyzfile 0 6 pbe.xyz
| 17>
| 18>
| 19>                          ****END OF INPUT****

CARTESIAN COORDINATES (ANGSTROEM)
---------------------------------
  Au     8.785617    6.935146    6.402243
  Au    10.920102    8.015935    7.686367
  Au     4.574798    6.635170    8.241733
  Au     9.183718    6.603748    9.247387
  Au     6.668210    5.740199    9.954660
  Au     7.650142    8.251728   10.913516
  Au     5.138809    8.978183    9.755905
  Au     7.579288    9.494702    6.243922
  Au     7.435863   10.300174    9.014758
  Au    10.035678    9.326387   10.036140
  Au     9.705135   10.595438    7.527159
  Au     6.016442    7.165476    5.875926
  Mn     6.961139    7.758495    8.248835

 Total Charge           Charge          ....    0
 Multiplicity           Mult            ....    6
 Number of Electrons    NEL             ....  253
 Basis Dimension        Dim             ....  525

ORBITAL ENERGIES
----------------

  NO   OCC          E(Eh)            E(eV)
   0   2.0000    -240.549626     -6545.6881
   1   2.0000     -29.127756      -792.6065
   2   2.0000     -24.832513      -675.7270
   3   2.0000     -24.832483      -675.7262
   4   2.0000     -24.832204      -675.7186
   5   2.0000      -4.726874      -128.6248
   6   2.0000      -4.726866      -128.6246
   7   2.0000      -4.720749      -128.4581
   8   2.0000      -4.720729      -128.4576
   9   2.0000      -4.720571      -128.4533
  10   2.0000      -4.713332      -128.2563
  11   2.0000      -4.709241      -128.1450
  12   2.0000      -4.709230      -128.1447
  13   2.0000      -4.702704      -127.9671
  14   2.0000      -4.700711      -127.9128
  15   2.0000      -4.700537      -127.9081
  16   2.0000      -4.691687      -127.6673
  17   2.0000      -3.834229      -104.3347
  18   2.0000      -2.766257       -75.2737
  19   2.0000      -2.766211       -75.2724
  20   2.0000      -2.763848       -75.2081
  21   2.0000      -2.763792       -75.2066
  22   2.0000      -2.762016       -75.1583
  23   2.0000      -2.761667       -75.1488
  24   2.0000      -2.760284       -75.1112
  25   2.0000      -2.758112       -75.0520
  26   2.0000      -2.757964       -75.0480
  27   2.0000      -2.757275       -75.0293
  28   2.0000      -2.756770       -75.0155
  29   2.0000      -2.756605       -75.0110
  30   2.0000      -2.755686       -74.9860
  31   2.0000      -2.754918       -74.9651
  32   2.0000      -2.752716       -74.9052
  33   2.0000      -2.751279       -74.8661
  34   2.0000      -2.747760       -74.7704
  35   2.0000      -2.747687       -74.7684
  36   2.0000      -2.747137       -74.7534
  37   2.0000      -2.745282       -74.7029
  38   2.0000      -2.744193       -74.6733
  39   2.0000      -2.743540       -74.6555
  40   2.0000      -2.741834       -74.6091
  41   2.0000      -2.741801       -74.6082
  42   2.0000      -2.740019       -74.5597
  43   2.0000      -2.738024       -74.5054
  44   2.0000      -2.737433       -74.4893
  45   2.0000      -2.737361       -74.4874
  46   2.0000      -2.735920       -74.4482
  47   2.0000      -2.735756       -74.4437
  48   2.0000      -2.735715       -74.4426
  49   2.0000      -2.735008       -74.4233
  50   2.0000      -2.732967       -74.3678
  51   2.0000      -2.727802       -74.2273
  52   2.0000      -2.726537       -74.1929
  53   2.0000      -2.726449       -74.1905
  54   2.0000      -2.502198       -68.0883
  55   2.0000      -2.502019       -68.0834
  56   2.0000      -2.501797       -68.0774
  57   2.0000      -0.573715       -15.6116
  58   2.0000      -0.556570       -15.1451
  59   2.0000      -0.555929       -15.1276
  60   2.0000      -0.552529       -15.0351
  61   2.0000      -0.547395       -14.8954
  62   2.0000      -0.542785       -14.7699
  63   2.0000      -0.542303       -14.7568
  64   2.0000      -0.541453       -14.7337
  65   2.0000      -0.539139       -14.6707
  66   2.0000      -0.533903       -14.5282
  67   2.0000      -0.529419       -14.4062
  68   2.0000      -0.529032       -14.3957
  69   2.0000      -0.528048       -14.3689
  70   2.0000      -0.523026       -14.2323
  71   2.0000      -0.519623       -14.1397
  72   2.0000      -0.517329       -14.0772
  73   2.0000      -0.517189       -14.0734
  74   2.0000      -0.515021       -14.0144
  75   2.0000      -0.511542       -13.9198
  76   2.0000      -0.510935       -13.9032
  77   2.0000      -0.505293       -13.7497
  78   2.0000      -0.501710       -13.6522
  79   2.0000      -0.500116       -13.6088
  80   2.0000      -0.500004       -13.6058
  81   2.0000      -0.493341       -13.4245
  82   2.0000      -0.493071       -13.4171
  83   2.0000      -0.489122       -13.3097
  84   2.0000      -0.487541       -13.2667
  85   2.0000      -0.482701       -13.1350
  86   2.0000      -0.482346       -13.1253
  87   2.0000      -0.479402       -13.0452
  88   2.0000      -0.476649       -12.9703
  89   2.0000      -0.469025       -12.7628
  90   2.0000      -0.465286       -12.6611
  91   2.0000      -0.464366       -12.6360
  92   2.0000      -0.462137       -12.5754
  93   2.0000      -0.459990       -12.5170
  94   2.0000      -0.457912       -12.4604
  95   2.0000      -0.457324       -12.4444
  96   2.0000      -0.454695       -12.3729
  97   2.0000      -0.454444       -12.3661
  98   2.0000      -0.451037       -12.2733
  99   2.0000      -0.450128       -12.2486
 100   2.0000      -0.447353       -12.1731
 101   2.0000      -0.446142       -12.1401
 102   2.0000      -0.441614       -12.0169
 103   2.0000      -0.440382       -11.9834
 104   2.0000      -0.437234       -11.8977
 105   2.0000      -0.436956       -11.8902
 106   2.0000      -0.434772       -11.8307
 107   2.0000      -0.433954       -11.8085
 108   2.0000      -0.427087       -11.6216
 109   2.0000      -0.426119       -11.5953
 110   2.0000      -0.419595       -11.4178
 111   2.0000      -0.418653       -11.3921
 112   2.0000      -0.418595       -11.3906
 113   2.0000      -0.411226       -11.1900
 114   2.0000      -0.411115       -11.1870
 115   2.0000      -0.410357       -11.1664
 116   2.0000      -0.403828       -10.9887
 117   2.0000      -0.394460       -10.7338
 118   2.0000      -0.363221        -9.8837
 119   2.0000      -0.345206        -9.3935
 120   2.0000      -0.317413        -8.6372
 121   2.0000      -0.241208        -6.5636
 122   2.0000      -0.237873        -6.4729
 123   2.0000      -0.224029        -6.0961
 124   1.0000      -0.151441        -4.1209
 125   1.0000      -0.151012        -4.1092
 126   1.0000      -0.146767        -3.9937
 127   1.0000      -0.154501        -4.2042
 128   1.0000      -0.151951        -4.1348
 129   0.0000      -0.031899        -0.8680
 130   0.0000      -0.026304        -0.7158
 131   0.0000      -0.005777        -0.1572
 132   0.0000      -0.000813        -0.0221
 133   0.0000       0.008954         0.2436

MULLIKEN ATOMIC CHARGES AND SPIN DENSITIES
------------------------------------------
   0 Au:    0.116040    0.009280
   1 Au:    0.160663    0.005732
   2 Au:    0.192145    0.011434
   3 Au:   -0.002413    0.010056
   4 Au:    0.302446    0.011267
   5 Au:    0.152815    0.007836
   6 Au:    0.302451    0.011206
   7 Au:    0.114343    0.009289
   8 Au:   -0.004615    0.010052
   9 Au:   -0.059760    0.006043
  10 Au:    0.164074    0.005715
  11 Au:    0.223347    0.012447
  12 Mn:   -1.661537    3.889643
Sum of atomic charges       :    0.0000000

LOEWDIN ATOMIC CHARGES AND SPIN DENSITIES
-----------------------------------------
   0 Au:    0.024866    0.014038
   1 Au:    0.012139    0.006237
   2 Au:    0.012363    0.016461
   3 Au:   -0.042099    0.014773
   4 Au:    0.080785    0.015495
   5 Au:   -0.012900    0.011183
   6 Au:    0.080418    0.015422
   7 Au:    0.024387    0.014037
   8 Au:   -0.042336    0.014763
   9 Au:   -0.028917    0.006209
  10 Au:    0.013291    0.006226
  11 Au:    0.077745    0.016668
  12 Mn:   -0.199743    3.848489

  Mayer bond orders larger than 0.100000
B(  0-Au,  1-Au) :   0.4097 B(  0-Au,  3-Au) :   0.2518 B(  0-Au,  7-Au) :   0.1102
B(  0-Au, 11-Au) :   0.1815 B(  0-Au, 12-Mn) :   0.3987 B(  1-Au,  3-Au) :   0.3740
B(  1-Au,  9-Au) :   0.1867 B(  1-Au, 10-Au) :   0.1272 B(  1-Au, 12-Mn) :   0.1185
B(  2-Au,  4-Au) :   0.1512 B(  2-Au,  6-Au) :   0.1523 B(  2-Au, 11-Au) :   0.1533
B(  2-Au, 12-Mn) :   0.5128 B(  3-Au,  4-Au) :   0.3584 B(  3-Au,  5-Au) :   0.2035
B(  3-Au,  9-Au) :   0.1781 B(  3-Au, 12-Mn) :   0.3987 B(  4-Au,  5-Au) :   0.1186
B(  4-Au, 12-Mn) :   0.4426 B(  5-Au,  6-Au) :   0.1192 B(  5-Au,  8-Au) :   0.2039
B(  5-Au,  9-Au) :   0.3721 B(  5-Au, 12-Mn) :   0.4229 B(  6-Au,  8-Au) :   0.3579
B(  6-Au, 12-Mn) :   0.4414 B(  7-Au,  8-Au) :   0.2538 B(  7-Au, 10-Au) :   0.4092
B(  7-Au, 11-Au) :   0.1813 B(  7-Au, 12-Mn) :   0.3989 B(  8-Au,  9-Au) :   0.1785
B(  8-Au, 10-Au) :   0.3742 B(  8-Au, 12-Mn) :   0.3981 B(  9-Au, 10-Au) :   0.1864
B(  9-Au, 12-Mn) :   0.1526 B( 10-Au, 12-Mn) :   0.1172 B( 11-Au, 12-Mn) :   0.4950

FINAL SINGLE POINT ENERGY     -2767.527759639289

DIPOLE MOMENT
-------------
                                X             Y             Z
Electronic contribution:     30.45020      14.79821       5.58465
Nuclear contribution   :    -30.80427     -14.97852      -5.80209
                        -----------------------------------------
Total Dipole Moment    :     -0.35407      -0.18030      -0.21744
                        -----------------------------------------
Magnitude (a.u.)       :      0.45294
Magnitude (Debye)      :      1.15128

Rotational constants in cm-1:     0.001600     0.001203     0.001086
Rotational constants in MHz :    47.975621    36.051381    32.548719

                             ****ORCA TERMINATED NORMALLY****
TOTAL RUN TIME: 0 days 0 hours 12 minutes 35 seconds 711 msec
