                         Program Version 5.0.3 -  RELEASE  -
|  1> !RI-B2PLYP def2-TZVP def2-TZVP/C
|  2> !RIJCOSX VERYSLOWCONV
|  3>
|  4> %scf
|  5>   AutoTRAHIter 200
|  6>   maxiter 400
|  7> end
|  8>
|  9>
| 10> %pal nprocs 6 end
| 11>
| 12> *xyzfile 0 5 pbe.xyz
| 13>
| 14> $new_job
| 15>
| 16> !RI-B2PLYP def2-TZVP def2-TZVP/C
| 17> !RIJCOSX VERYSLOWCONV
| 18>
| 19> %scf
| 20>   AutoTRAHIter 200
| 21>   maxiter 400
| 22> end
| 23>
| 24>
| 25> %pal nprocs 6 end
| 26>
| 27> *xyzfile 0 3 pbe.xyz
| 28>
| 29>
| 30>
| 31>
| 32>
| 33>                          ****END OF INPUT****
 Total Charge           Charge          ....    0
 Multiplicity           Mult            ....    5
 Number of Electrons    NEL             ....  216
MP2 TOTAL ENERGY:    -2619.307357116 Eh
FINAL SINGLE POINT ENERGY     -2619.307357116241

CARTESIAN COORDINATES (ANGSTROEM)
---------------------------------
  Au     3.567893    8.780388    8.356887
  Au     6.630330    5.734774    8.787202
  Au     6.910355    7.434511   10.801239
  Au     5.043433    9.615704   10.580018
  Au     5.630183   10.914194    8.084902
  Au     5.350559    9.177122    6.021337
  Au     4.575957    6.574178    6.961692
  Au     7.682727   10.049816    9.892699
  Au     7.214710    7.004397    6.271883
  Au     8.079930    9.503655    7.176450
  Fe     6.139903    8.285328    8.447435

 Multiplicity           Mult            ....    3
 Number of Electrons    NEL             ....  216
 Basis Dimension        Dim             ....  445

ORBITAL ENERGIES
----------------
                 SPIN UP ORBITALS
  NO   OCC          E(Eh)            E(eV)
   0   1.0000    -258.335563     -7029.6681
   1   1.0000     -30.897600      -840.7664
   2   1.0000     -26.613553      -724.1916
   3   1.0000     -26.588043      -723.4974
   4   1.0000     -26.585615      -723.4314
   5   1.0000      -4.397446      -119.6606
   6   1.0000      -4.397417      -119.6598
   7   1.0000      -4.396217      -119.6271
   8   1.0000      -4.395931      -119.6194
   9   1.0000      -4.395742      -119.6142
  10   1.0000      -4.395661      -119.6120
  11   1.0000      -4.393976      -119.5662
  12   1.0000      -4.393879      -119.5635
  13   1.0000      -4.385890      -119.3461
  14   1.0000      -4.385535      -119.3365
  15   1.0000      -3.907710      -106.3342
  16   1.0000      -2.653742       -72.2120
  17   1.0000      -2.599553       -70.7374
  18   1.0000      -2.595006       -70.6137
  19   1.0000      -2.519749       -68.5658
  20   1.0000      -2.519554       -68.5605
  21   1.0000      -2.518506       -68.5320
  22   1.0000      -2.517006       -68.4912
  23   1.0000      -2.516831       -68.4864
  24   1.0000      -2.516622       -68.4808
  25   1.0000      -2.516004       -68.4639
  26   1.0000      -2.515215       -68.4425
  27   1.0000      -2.514769       -68.4304
  28   1.0000      -2.514718       -68.4290
  29   1.0000      -2.513896       -68.4066
  30   1.0000      -2.513355       -68.3919
  31   1.0000      -2.513197       -68.3876
  32   1.0000      -2.512303       -68.3633
  33   1.0000      -2.512185       -68.3600
  34   1.0000      -2.512068       -68.3568
  35   1.0000      -2.511357       -68.3375
  36   1.0000      -2.510612       -68.3172
  37   1.0000      -2.510518       -68.3147
  38   1.0000      -2.509910       -68.2981
  39   1.0000      -2.509132       -68.2769
  40   1.0000      -2.508963       -68.2724
  41   1.0000      -2.508888       -68.2703
  42   1.0000      -2.507643       -68.2364
  43   1.0000      -2.507296       -68.2270
  44   1.0000      -2.505807       -68.1865
  45   1.0000      -2.503522       -68.1243
  46   1.0000      -2.499244       -68.0079
  47   1.0000      -2.498625       -67.9910
  48   1.0000      -2.498330       -67.9830
  49   1.0000      -0.558586       -15.1999
  50   1.0000      -0.550612       -14.9829
  51   1.0000      -0.548888       -14.9360
  52   1.0000      -0.533739       -14.5238
  53   1.0000      -0.505668       -13.7599
  54   1.0000      -0.504129       -13.7181
  55   1.0000      -0.461640       -12.5619
  56   1.0000      -0.450627       -12.2622
  57   1.0000      -0.447193       -12.1687
  58   1.0000      -0.446021       -12.1368
  59   1.0000      -0.444884       -12.1059
  60   1.0000      -0.442385       -12.0379
  61   1.0000      -0.440650       -11.9907
  62   1.0000      -0.437666       -11.9095
  63   1.0000      -0.436832       -11.8868
  64   1.0000      -0.436402       -11.8751
  65   1.0000      -0.430130       -11.7044
  66   1.0000      -0.427710       -11.6386
  67   1.0000      -0.426085       -11.5944
  68   1.0000      -0.421942       -11.4816
  69   1.0000      -0.420529       -11.4432
  70   1.0000      -0.420152       -11.4329
  71   1.0000      -0.418994       -11.4014
  72   1.0000      -0.417146       -11.3511
  73   1.0000      -0.409232       -11.1358
  74   1.0000      -0.405892       -11.0449
  75   1.0000      -0.402952       -10.9649
  76   1.0000      -0.398620       -10.8470
  77   1.0000      -0.393435       -10.7059
  78   1.0000      -0.392458       -10.6793
  79   1.0000      -0.387926       -10.5560
  80   1.0000      -0.386181       -10.5085
  81   1.0000      -0.381990       -10.3945
  82   1.0000      -0.378440       -10.2979
  83   1.0000      -0.374027       -10.1778
  84   1.0000      -0.369905       -10.0656
  85   1.0000      -0.367777       -10.0077
  86   1.0000      -0.364460        -9.9175
  87   1.0000      -0.363849        -9.9008
  88   1.0000      -0.363359        -9.8875
  89   1.0000      -0.362826        -9.8730
  90   1.0000      -0.361786        -9.8447
  91   1.0000      -0.361414        -9.8346
  92   1.0000      -0.359680        -9.7874
  93   1.0000      -0.353208        -9.6113
  94   1.0000      -0.352788        -9.5999
  95   1.0000      -0.349772        -9.5178
  96   1.0000      -0.346571        -9.4307
  97   1.0000      -0.345154        -9.3921
  98   1.0000      -0.343668        -9.3517
  99   1.0000      -0.342384        -9.3167
 100   1.0000      -0.341576        -9.2948
 101   1.0000      -0.337546        -9.1851
 102   1.0000      -0.336164        -9.1475
 103   1.0000      -0.330091        -8.9822
 104   1.0000      -0.324483        -8.8296
 105   1.0000      -0.294214        -8.0060
 106   1.0000      -0.285649        -7.7729
 107   1.0000      -0.263755        -7.1771
 108   1.0000      -0.193609        -5.2684
 109   0.0000      -0.113891        -3.0991
 110   0.0000      -0.103027        -2.8035
 111   0.0000      -0.092567        -2.5189
 112   0.0000      -0.059304        -1.6137
 113   0.0000      -0.057596        -1.5673

                 SPIN DOWN ORBITALS
  NO   OCC          E(Eh)            E(eV)
   0   1.0000    -258.333519     -7029.6124
   1   1.0000     -30.804577      -838.2352
   2   1.0000     -26.515194      -721.5151
   3   1.0000     -26.509056      -721.3481
   4   1.0000     -26.508036      -721.3203
   5   1.0000      -4.397818      -119.6707
   6   1.0000      -4.397770      -119.6694
   7   1.0000      -4.397710      -119.6678
   8   1.0000      -4.397446      -119.6606
   9   1.0000      -4.395902      -119.6186
  10   1.0000      -4.395818      -119.6163
  11   1.0000      -4.394682      -119.5854
  12   1.0000      -4.394590      -119.5829
  13   1.0000      -4.386002      -119.3492
  14   1.0000      -4.385642      -119.3394
  15   1.0000      -3.663943       -99.7010
  16   1.0000      -2.519631       -68.5627
  17   1.0000      -2.519573       -68.5611
  18   1.0000      -2.518535       -68.5328
  19   1.0000      -2.517122       -68.4944
  20   1.0000      -2.516925       -68.4890
  21   1.0000      -2.516347       -68.4733
  22   1.0000      -2.516129       -68.4674
  23   1.0000      -2.514880       -68.4334
  24   1.0000      -2.514760       -68.4301
  25   1.0000      -2.514335       -68.4185
  26   1.0000      -2.514142       -68.4133
  27   1.0000      -2.513694       -68.4011
  28   1.0000      -2.513128       -68.3857
  29   1.0000      -2.513061       -68.3839
  30   1.0000      -2.512733       -68.3749
  31   1.0000      -2.512456       -68.3674
  32   1.0000      -2.512338       -68.3642
  33   1.0000      -2.511415       -68.3391
  34   1.0000      -2.511266       -68.3350
  35   1.0000      -2.510621       -68.3175
  36   1.0000      -2.509983       -68.3001
  37   1.0000      -2.509530       -68.2878
  38   1.0000      -2.508035       -68.2471
  39   1.0000      -2.507889       -68.2431
  40   1.0000      -2.507654       -68.2367
  41   1.0000      -2.504051       -68.1387
  42   1.0000      -2.503068       -68.1119
  43   1.0000      -2.499044       -68.0025
  44   1.0000      -2.498843       -67.9970
  45   1.0000      -2.498254       -67.9809
  46   1.0000      -2.343136       -63.7600
  47   1.0000      -2.341890       -63.7261
  48   1.0000      -2.328576       -63.3638
  49   1.0000      -0.508001       -13.8234
  50   1.0000      -0.466025       -12.6812
  51   1.0000      -0.463649       -12.6165
  52   1.0000      -0.462490       -12.5850
  53   1.0000      -0.459045       -12.4913
  54   1.0000      -0.456605       -12.4249
  55   1.0000      -0.453192       -12.3320
  56   1.0000      -0.451482       -12.2855
  57   1.0000      -0.447993       -12.1905
  58   1.0000      -0.443850       -12.0778
  59   1.0000      -0.440525       -11.9873
  60   1.0000      -0.438819       -11.9409
  61   1.0000      -0.433771       -11.8035
  62   1.0000      -0.428011       -11.6468
  63   1.0000      -0.427356       -11.6290
  64   1.0000      -0.426237       -11.5985
  65   1.0000      -0.424870       -11.5613
  66   1.0000      -0.421033       -11.4569
  67   1.0000      -0.420863       -11.4523
  68   1.0000      -0.416669       -11.3381
  69   1.0000      -0.415756       -11.3133
  70   1.0000      -0.414213       -11.2713
  71   1.0000      -0.403722       -10.9858
  72   1.0000      -0.400376       -10.8948
  73   1.0000      -0.400054       -10.8860
  74   1.0000      -0.398886       -10.8542
  75   1.0000      -0.393061       -10.6957
  76   1.0000      -0.389903       -10.6098
  77   1.0000      -0.384621       -10.4661
  78   1.0000      -0.384296       -10.4572
  79   1.0000      -0.376238       -10.2380
  80   1.0000      -0.374247       -10.1838
  81   1.0000      -0.371094       -10.0980
  82   1.0000      -0.369799       -10.0627
  83   1.0000      -0.368272       -10.0212
  84   1.0000      -0.365879        -9.9561
  85   1.0000      -0.363013        -9.8781
  86   1.0000      -0.361905        -9.8479
  87   1.0000      -0.361365        -9.8332
  88   1.0000      -0.356589        -9.7033
  89   1.0000      -0.354646        -9.6504
  90   1.0000      -0.352090        -9.5809
  91   1.0000      -0.351452        -9.5635
  92   1.0000      -0.347119        -9.4456
  93   1.0000      -0.347037        -9.4434
  94   1.0000      -0.346495        -9.4286
  95   1.0000      -0.343390        -9.3441
  96   1.0000      -0.342156        -9.3105
  97   1.0000      -0.340019        -9.2524
  98   1.0000      -0.334425        -9.1002
  99   1.0000      -0.325219        -8.8497
 100   1.0000      -0.312868        -8.5136
 101   1.0000      -0.309678        -8.4268
 102   1.0000      -0.298201        -8.1145
 103   1.0000      -0.284111        -7.7311
 104   1.0000      -0.211655        -5.7594
 105   1.0000      -0.208832        -5.6826
 106   1.0000      -0.197310        -5.3691
 107   0.0000      -0.110803        -3.0151
 108   0.0000      -0.066985        -1.8228
 109   0.0000      -0.059937        -1.6310
 110   0.0000      -0.034997        -0.9523
 111   0.0000      -0.013459        -0.3662

MULLIKEN ATOMIC CHARGES AND SPIN POPULATIONS
--------------------------------------------
   0 Au:    0.093500   -0.287398
   1 Au:    0.155283   -0.163525
   2 Au:    0.153479   -0.159735
   3 Au:    0.284603   -0.040548
   4 Au:    0.141652   -0.274595
   5 Au:    0.140929   -0.272564
   6 Au:    0.262644    0.048987
   7 Au:    0.262807    0.048139
   8 Au:    0.283937   -0.040821
   9 Au:    0.092859   -0.288003
  10 Fe:   -1.871694    3.430062
Sum of atomic charges         :   -0.0000000

LOEWDIN ATOMIC CHARGES AND SPIN POPULATIONS
-------------------------------------------
   0 Au:    0.069116   -0.207895
   1 Au:    0.024119   -0.104222
   2 Au:    0.024154   -0.103304
   3 Au:    0.055131   -0.129750
   4 Au:   -0.006948   -0.182764
   5 Au:   -0.006808   -0.182491
   6 Au:    0.047879   -0.088390
   7 Au:    0.047789   -0.089017
   8 Au:    0.054629   -0.129911
   9 Au:    0.069433   -0.208094
  10 Fe:   -0.378494    3.425838

  Mayer bond orders larger than 0.100000
B(  0-Au,  3-Au) :   0.1625 B(  0-Au,  6-Au) :   0.1483 B(  0-Au, 10-Fe) :   0.5276
B(  1-Au,  2-Au) :   0.3477 B(  1-Au, 10-Fe) :   0.6123 B(  2-Au, 10-Fe) :   0.6146
B(  3-Au,  4-Au) :   0.1333 B(  3-Au,  7-Au) :   0.3952 B(  3-Au, 10-Fe) :   0.3878
B(  4-Au,  5-Au) :   0.3076 B(  4-Au,  7-Au) :   0.1411 B(  4-Au, 10-Fe) :   0.5240
B(  5-Au,  6-Au) :   0.1383 B(  5-Au,  8-Au) :   0.1334 B(  5-Au, 10-Fe) :   0.5251
B(  6-Au,  8-Au) :   0.3962 B(  6-Au, 10-Fe) :   0.3806 B(  7-Au,  9-Au) :   0.1482
B(  7-Au, 10-Fe) :   0.3801 B(  8-Au,  9-Au) :   0.1627 B(  8-Au, 10-Fe) :   0.3872
B(  9-Au, 10-Fe) :   0.5279

MP2 TOTAL ENERGY:    -2619.310365394 Eh
FINAL SINGLE POINT ENERGY     -2619.310365393544

DIPOLE MOMENT
-------------
                                X             Y             Z
Electronic contribution:     -2.76823       7.51559      -5.97809
Nuclear contribution   :      2.70053      -7.33113       5.83336
                        -----------------------------------------
Total Dipole Moment    :     -0.06770       0.18445      -0.14473
                        -----------------------------------------
Magnitude (a.u.)       :      0.24403
Magnitude (Debye)      :      0.62029

Rotational constants in cm-1:     0.002045     0.001763     0.001619
Rotational constants in MHz :    61.304219    52.865788    48.535942

                             ****ORCA TERMINATED NORMALLY****
TOTAL RUN TIME: 0 days 0 hours 11 minutes 43 seconds 403 msec
