                         Program Version 5.0.3 -  RELEASE  -
|  1> !PBE def2-TZVP VERYSLOWCONV
|  2>
|  3> %scf
|  4>   AutoTRAHIter 200
|  5>   maxiter 400
|  6> end
|  7>
|  8>
|  9> %pal nprocs 6 end
| 10>
| 11> *xyzfile 0 5 pbe.xyz
| 12>
| 13> $new_job
| 14>
| 15> !PBE def2-TZVP VERYSLOWCONV
| 16>
| 17> %scf
| 18>   AutoTRAHIter 200
| 19>   maxiter 400
| 20> end
| 21>
| 22>
| 23> %pal nprocs 6 end
| 24>
| 25> *xyzfile 0 3 pbe.xyz
| 26>
| 27>
| 28>
| 29>
| 30>
| 31>                          ****END OF INPUT****
 Total Charge           Charge          ....    0
 Multiplicity           Mult            ....    5
 Number of Electrons    NEL             ....  216
FINAL SINGLE POINT ENERGY     -2621.700225238856

CARTESIAN COORDINATES (ANGSTROEM)
---------------------------------
  Au     3.567893    8.780388    8.356887
  Au     6.630330    5.734774    8.787202
  Au     6.910355    7.434511   10.801239
  Au     5.043433    9.615704   10.580018
  Au     5.630183   10.914194    8.084902
  Au     5.350559    9.177122    6.021337
  Au     4.575957    6.574178    6.961692
  Au     7.682727   10.049816    9.892699
  Au     7.214710    7.004397    6.271883
  Au     8.079930    9.503655    7.176450
  Fe     6.139903    8.285328    8.447435

 Multiplicity           Mult            ....    3
 Number of Electrons    NEL             ....  216
 Basis Dimension        Dim             ....  445

ORBITAL ENERGIES
----------------
                 SPIN UP ORBITALS
  NO   OCC          E(Eh)            E(eV)
   0   1.0000    -254.756377     -6932.2734
   1   1.0000     -29.595400      -805.3318
   2   1.0000     -25.533827      -694.8108
   3   1.0000     -25.530584      -694.7225
   4   1.0000     -25.528132      -694.6558
   5   1.0000      -4.024251      -109.5054
   6   1.0000      -4.024037      -109.4996
   7   1.0000      -4.020370      -109.3998
   8   1.0000      -4.020329      -109.3987
   9   1.0000      -4.018926      -109.3605
  10   1.0000      -4.018907      -109.3600
  11   1.0000      -4.018607      -109.3519
  12   1.0000      -4.018523      -109.3496
  13   1.0000      -4.014190      -109.2317
  14   1.0000      -4.013918      -109.2243
  15   1.0000      -3.370839       -91.7252
  16   1.0000      -2.241569       -60.9962
  17   1.0000      -2.239108       -60.9292
  18   1.0000      -2.238116       -60.9022
  19   1.0000      -2.237904       -60.8965
  20   1.0000      -2.237240       -60.8784
  21   1.0000      -2.235981       -60.8441
  22   1.0000      -2.235802       -60.8393
  23   1.0000      -2.235320       -60.8262
  24   1.0000      -2.235198       -60.8228
  25   1.0000      -2.235041       -60.8186
  26   1.0000      -2.234744       -60.8105
  27   1.0000      -2.234225       -60.7964
  28   1.0000      -2.233283       -60.7707
  29   1.0000      -2.233210       -60.7687
  30   1.0000      -2.232776       -60.7569
  31   1.0000      -2.232399       -60.7467
  32   1.0000      -2.231241       -60.7152
  33   1.0000      -2.231086       -60.7109
  34   1.0000      -2.230706       -60.7006
  35   1.0000      -2.230445       -60.6935
  36   1.0000      -2.230054       -60.6829
  37   1.0000      -2.229622       -60.6711
  38   1.0000      -2.229539       -60.6688
  39   1.0000      -2.229318       -60.6628
  40   1.0000      -2.228700       -60.6460
  41   1.0000      -2.228642       -60.6444
  42   1.0000      -2.227697       -60.6187
  43   1.0000      -2.224670       -60.5363
  44   1.0000      -2.222607       -60.4802
  45   1.0000      -2.222100       -60.4664
  46   1.0000      -2.191108       -59.6231
  47   1.0000      -2.183005       -59.4026
  48   1.0000      -2.178919       -59.2914
  49   1.0000      -0.423182       -11.5154
  50   1.0000      -0.376016       -10.2319
  51   1.0000      -0.372857       -10.1460
  52   1.0000      -0.369945       -10.0667
  53   1.0000      -0.359617        -9.7857
  54   1.0000      -0.358297        -9.7498
  55   1.0000      -0.353181        -9.6106
  56   1.0000      -0.349397        -9.5076
  57   1.0000      -0.345824        -9.4104
  58   1.0000      -0.339145        -9.2286
  59   1.0000      -0.335662        -9.1338
  60   1.0000      -0.333376        -9.0716
  61   1.0000      -0.331349        -9.0165
  62   1.0000      -0.325717        -8.8632
  63   1.0000      -0.323810        -8.8113
  64   1.0000      -0.320614        -8.7243
  65   1.0000      -0.318748        -8.6736
  66   1.0000      -0.317625        -8.6430
  67   1.0000      -0.317503        -8.6397
  68   1.0000      -0.316541        -8.6135
  69   1.0000      -0.312584        -8.5059
  70   1.0000      -0.310463        -8.4481
  71   1.0000      -0.310345        -8.4449
  72   1.0000      -0.302119        -8.2211
  73   1.0000      -0.299363        -8.1461
  74   1.0000      -0.298780        -8.1302
  75   1.0000      -0.295935        -8.0528
  76   1.0000      -0.295539        -8.0420
  77   1.0000      -0.287471        -7.8225
  78   1.0000      -0.281411        -7.6576
  79   1.0000      -0.281318        -7.6551
  80   1.0000      -0.279132        -7.5956
  81   1.0000      -0.272835        -7.4242
  82   1.0000      -0.271968        -7.4006
  83   1.0000      -0.267821        -7.2878
  84   1.0000      -0.267422        -7.2769
  85   1.0000      -0.267103        -7.2682
  86   1.0000      -0.262060        -7.1310
  87   1.0000      -0.260868        -7.0986
  88   1.0000      -0.258082        -7.0228
  89   1.0000      -0.257756        -7.0139
  90   1.0000      -0.257256        -7.0003
  91   1.0000      -0.256180        -6.9710
  92   1.0000      -0.253401        -6.8954
  93   1.0000      -0.251584        -6.8460
  94   1.0000      -0.248396        -6.7592
  95   1.0000      -0.246974        -6.7205
  96   1.0000      -0.246122        -6.6973
  97   1.0000      -0.245933        -6.6922
  98   1.0000      -0.244850        -6.6627
  99   1.0000      -0.243809        -6.6344
 100   1.0000      -0.242583        -6.6010
 101   1.0000      -0.241094        -6.5605
 102   1.0000      -0.241001        -6.5580
 103   1.0000      -0.237869        -6.4727
 104   1.0000      -0.234415        -6.3787
 105   1.0000      -0.233368        -6.3503
 106   1.0000      -0.231048        -6.2871
 107   1.0000      -0.227080        -6.1792
 108   1.0000      -0.178907        -4.8683
 109   0.0000      -0.170485        -4.6391
 110   0.0000      -0.170071        -4.6279
 111   0.0000      -0.161737        -4.4011
 112   0.0000      -0.124247        -3.3809
 113   0.0000      -0.119203        -3.2437

                 SPIN DOWN ORBITALS
  NO   OCC          E(Eh)            E(eV)
   0   1.0000    -254.755690     -6932.2548
   1   1.0000     -29.538605      -803.7863
   2   1.0000     -25.489018      -693.5914
   3   1.0000     -25.488209      -693.5694
   4   1.0000     -25.486602      -693.5257
   5   1.0000      -4.025110      -109.5288
   6   1.0000      -4.024896      -109.5230
   7   1.0000      -4.020276      -109.3973
   8   1.0000      -4.020231      -109.3961
   9   1.0000      -4.019299      -109.3707
  10   1.0000      -4.019275      -109.3700
  11   1.0000      -4.018994      -109.3624
  12   1.0000      -4.018906      -109.3600
  13   1.0000      -4.014132      -109.2301
  14   1.0000      -4.013859      -109.2227
  15   1.0000      -3.243240       -88.2530
  16   1.0000      -2.241836       -61.0035
  17   1.0000      -2.239192       -60.9315
  18   1.0000      -2.238977       -60.9257
  19   1.0000      -2.237674       -60.8902
  20   1.0000      -2.236910       -60.8694
  21   1.0000      -2.236800       -60.8664
  22   1.0000      -2.236690       -60.8634
  23   1.0000      -2.236132       -60.8482
  24   1.0000      -2.235539       -60.8321
  25   1.0000      -2.235524       -60.8317
  26   1.0000      -2.235089       -60.8199
  27   1.0000      -2.234795       -60.8119
  28   1.0000      -2.233257       -60.7700
  29   1.0000      -2.232949       -60.7616
  30   1.0000      -2.232735       -60.7558
  31   1.0000      -2.232502       -60.7495
  32   1.0000      -2.231709       -60.7279
  33   1.0000      -2.231467       -60.7213
  34   1.0000      -2.230981       -60.7081
  35   1.0000      -2.230482       -60.6945
  36   1.0000      -2.230405       -60.6924
  37   1.0000      -2.229798       -60.6759
  38   1.0000      -2.229635       -60.6714
  39   1.0000      -2.229141       -60.6580
  40   1.0000      -2.229125       -60.6576
  41   1.0000      -2.229013       -60.6545
  42   1.0000      -2.227953       -60.6257
  43   1.0000      -2.225251       -60.5522
  44   1.0000      -2.222768       -60.4846
  45   1.0000      -2.222261       -60.4708
  46   1.0000      -2.060170       -56.0601
  47   1.0000      -2.059377       -56.0385
  48   1.0000      -2.059057       -56.0298
  49   1.0000      -0.419456       -11.4140
  50   1.0000      -0.375290       -10.2122
  51   1.0000      -0.366506        -9.9731
  52   1.0000      -0.363213        -9.8835
  53   1.0000      -0.352909        -9.6031
  54   1.0000      -0.350766        -9.5448
  55   1.0000      -0.350028        -9.5247
  56   1.0000      -0.347894        -9.4667
  57   1.0000      -0.346057        -9.4167
  58   1.0000      -0.339132        -9.2283
  59   1.0000      -0.336325        -9.1519
  60   1.0000      -0.334656        -9.1065
  61   1.0000      -0.327595        -8.9143
  62   1.0000      -0.325990        -8.8706
  63   1.0000      -0.322093        -8.7646
  64   1.0000      -0.319282        -8.6881
  65   1.0000      -0.318473        -8.6661
  66   1.0000      -0.317594        -8.6422
  67   1.0000      -0.315923        -8.5967
  68   1.0000      -0.315524        -8.5858
  69   1.0000      -0.312394        -8.5007
  70   1.0000      -0.308598        -8.3974
  71   1.0000      -0.305392        -8.3101
  72   1.0000      -0.298932        -8.1344
  73   1.0000      -0.298412        -8.1202
  74   1.0000      -0.294681        -8.0187
  75   1.0000      -0.292536        -7.9603
  76   1.0000      -0.292376        -7.9560
  77   1.0000      -0.281878        -7.6703
  78   1.0000      -0.281331        -7.6554
  79   1.0000      -0.279885        -7.6160
  80   1.0000      -0.276847        -7.5334
  81   1.0000      -0.270739        -7.3672
  82   1.0000      -0.267771        -7.2864
  83   1.0000      -0.267242        -7.2720
  84   1.0000      -0.266705        -7.2574
  85   1.0000      -0.266448        -7.2504
  86   1.0000      -0.263761        -7.1773
  87   1.0000      -0.261456        -7.1146
  88   1.0000      -0.259161        -7.0521
  89   1.0000      -0.257301        -7.0015
  90   1.0000      -0.256977        -6.9927
  91   1.0000      -0.253417        -6.8958
  92   1.0000      -0.253155        -6.8887
  93   1.0000      -0.250213        -6.8086
  94   1.0000      -0.249969        -6.8020
  95   1.0000      -0.247239        -6.7277
  96   1.0000      -0.246067        -6.6958
  97   1.0000      -0.245529        -6.6812
  98   1.0000      -0.242349        -6.5947
  99   1.0000      -0.238734        -6.4963
 100   1.0000      -0.236433        -6.4337
 101   1.0000      -0.233012        -6.3406
 102   1.0000      -0.232315        -6.3216
 103   1.0000      -0.196830        -5.3560
 104   1.0000      -0.193351        -5.2613
 105   1.0000      -0.190619        -5.1870
 106   1.0000      -0.187633        -5.1058
 107   0.0000      -0.160279        -4.3614
 108   0.0000      -0.149976        -4.0811
 109   0.0000      -0.148604        -4.0437
 110   0.0000      -0.147217        -4.0060
 111   0.0000      -0.147099        -4.0028

MULLIKEN ATOMIC CHARGES AND SPIN POPULATIONS
--------------------------------------------
   0 Au:    0.233550   -0.101388
   1 Au:    0.227390   -0.034252
   2 Au:    0.225861   -0.031588
   3 Au:    0.230148   -0.086740
   4 Au:    0.208085   -0.128399
   5 Au:    0.207156   -0.126426
   6 Au:    0.226098   -0.082046
   7 Au:    0.226577   -0.082440
   8 Au:    0.229900   -0.086705
   9 Au:    0.233035   -0.101281
  10 Fe:   -2.247800    2.861265
Sum of atomic charges         :   -0.0000000

LOEWDIN ATOMIC CHARGES AND SPIN POPULATIONS
-------------------------------------------
   0 Au:    0.104296   -0.114638
   1 Au:    0.071608   -0.027730
   2 Au:    0.071636   -0.026881
   3 Au:    0.055647   -0.112468
   4 Au:    0.035403   -0.103545
   5 Au:    0.035494   -0.102895
   6 Au:    0.053511   -0.110676
   7 Au:    0.053434   -0.111081
   8 Au:    0.055223   -0.112545
   9 Au:    0.104748   -0.114473
  10 Fe:   -0.640998    2.936932

  Mayer bond orders larger than 0.100000
B(  0-Au,  3-Au) :   0.2153 B(  0-Au,  4-Au) :   0.1350 B(  0-Au,  5-Au) :   0.1403
B(  0-Au,  6-Au) :   0.2137 B(  0-Au, 10-Fe) :   0.5946 B(  1-Au,  2-Au) :   0.3829
B(  1-Au,  6-Au) :   0.1227 B(  1-Au,  8-Au) :   0.1210 B(  1-Au, 10-Fe) :   0.6462
B(  2-Au,  3-Au) :   0.1197 B(  2-Au,  7-Au) :   0.1222 B(  2-Au, 10-Fe) :   0.6473
B(  3-Au,  4-Au) :   0.1611 B(  3-Au,  7-Au) :   0.3000 B(  3-Au, 10-Fe) :   0.5474
B(  4-Au,  5-Au) :   0.3382 B(  4-Au,  7-Au) :   0.1639 B(  4-Au,  9-Au) :   0.1384
B(  4-Au, 10-Fe) :   0.5847 B(  5-Au,  6-Au) :   0.1609 B(  5-Au,  8-Au) :   0.1608
B(  5-Au,  9-Au) :   0.1350 B(  5-Au, 10-Fe) :   0.5853 B(  6-Au,  8-Au) :   0.3009
B(  6-Au, 10-Fe) :   0.5440 B(  7-Au,  9-Au) :   0.2136 B(  7-Au, 10-Fe) :   0.5433
B(  8-Au,  9-Au) :   0.2158 B(  8-Au, 10-Fe) :   0.5464 B(  9-Au, 10-Fe) :   0.5957

FINAL SINGLE POINT ENERGY     -2621.716257729799

DIPOLE MOMENT
-------------
                                X             Y             Z
Electronic contribution:     -2.77188       7.52660      -5.98738
Nuclear contribution   :      2.70053      -7.33113       5.83336
                        -----------------------------------------
Total Dipole Moment    :     -0.07136       0.19547      -0.15401
                        -----------------------------------------
Magnitude (a.u.)       :      0.25888
Magnitude (Debye)      :      0.65802

Rotational constants in cm-1:     0.002045     0.001763     0.001619
Rotational constants in MHz :    61.304219    52.865788    48.535942

                             ****ORCA TERMINATED NORMALLY****
TOTAL RUN TIME: 0 days 0 hours 10 minutes 17 seconds 401 msec
