                         Program Version 5.0.3 -  RELEASE  -
|  1> !R2SCAN def2-TZVP VERYSLOWCONV
|  2> !KDIIS
|  3> %scf
|  4>   AutoTRAHIter 200
|  5>   maxiter 400
|  6> end
|  7>
|  8> %pal nprocs 6 end
|  9>
| 10> *xyzfile 0 5 pbe.xyz
| 11>
| 12> $new_job
| 13>
| 14> !R2SCAN def2-TZVP VERYSLOWCONV
| 15> !KDIIS
| 16> %scf
| 17>   AutoTRAHIter 200
| 18>   maxiter 400
| 19> end
| 20>
| 21>
| 22> %pal nprocs 6 end
| 23>
| 24> *xyzfile 0 3 pbe.xyz
| 25>
| 26>
| 27>
| 28>
| 29>
| 30>                          ****END OF INPUT****
 Total Charge           Charge          ....    0
 Multiplicity           Mult            ....    5
 Number of Electrons    NEL             ....  216
FINAL SINGLE POINT ENERGY     -2622.094518728048

CARTESIAN COORDINATES (ANGSTROEM)
---------------------------------
  Au     3.567893    8.780388    8.356887
  Au     6.630330    5.734774    8.787202
  Au     6.910355    7.434511   10.801239
  Au     5.043433    9.615704   10.580018
  Au     5.630183   10.914194    8.084902
  Au     5.350559    9.177122    6.021337
  Au     4.575957    6.574178    6.961692
  Au     7.682727   10.049816    9.892699
  Au     7.214710    7.004397    6.271883
  Au     8.079930    9.503655    7.176450
  Fe     6.139903    8.285328    8.447435

 Multiplicity           Mult            ....    3
 Number of Electrons    NEL             ....  216
 Basis Dimension        Dim             ....  445

ORBITAL ENERGIES
----------------
                 SPIN UP ORBITALS
  NO   OCC          E(Eh)            E(eV)
   0   1.0000    -255.644266     -6956.4341
   1   1.0000     -29.946127      -814.8755
   2   1.0000     -25.778633      -701.4723
   3   1.0000     -25.775436      -701.3853
   4   1.0000     -25.774531      -701.3606
   5   1.0000      -4.115317      -111.9835
   6   1.0000      -4.115085      -111.9772
   7   1.0000      -4.112147      -111.8972
   8   1.0000      -4.112118      -111.8964
   9   1.0000      -4.109874      -111.8353
  10   1.0000      -4.109871      -111.8353
  11   1.0000      -4.109523      -111.8258
  12   1.0000      -4.109447      -111.8237
  13   1.0000      -4.105022      -111.7033
  14   1.0000      -4.104719      -111.6951
  15   1.0000      -3.523962       -95.8919
  16   1.0000      -2.306242       -62.7560
  17   1.0000      -2.303529       -62.6822
  18   1.0000      -2.303086       -62.6702
  19   1.0000      -2.302601       -62.6570
  20   1.0000      -2.301661       -62.6314
  21   1.0000      -2.299998       -62.5861
  22   1.0000      -2.299946       -62.5847
  23   1.0000      -2.299284       -62.5667
  24   1.0000      -2.299277       -62.5665
  25   1.0000      -2.299198       -62.5643
  26   1.0000      -2.298565       -62.5471
  27   1.0000      -2.298197       -62.5371
  28   1.0000      -2.298194       -62.5370
  29   1.0000      -2.297228       -62.5108
  30   1.0000      -2.296714       -62.4968
  31   1.0000      -2.296224       -62.4834
  32   1.0000      -2.295063       -62.4518
  33   1.0000      -2.294832       -62.4455
  34   1.0000      -2.294637       -62.4403
  35   1.0000      -2.294342       -62.4322
  36   1.0000      -2.294017       -62.4234
  37   1.0000      -2.293990       -62.4227
  38   1.0000      -2.293658       -62.4136
  39   1.0000      -2.292989       -62.3954
  40   1.0000      -2.292900       -62.3930
  41   1.0000      -2.292349       -62.3780
  42   1.0000      -2.292293       -62.3765
  43   1.0000      -2.290838       -62.3369
  44   1.0000      -2.287794       -62.2540
  45   1.0000      -2.286247       -62.2120
  46   1.0000      -2.285682       -62.1966
  47   1.0000      -2.285594       -62.1942
  48   1.0000      -2.284700       -62.1698
  49   1.0000      -0.430202       -11.7064
  50   1.0000      -0.386539       -10.5183
  51   1.0000      -0.385312       -10.4849
  52   1.0000      -0.383545       -10.4368
  53   1.0000      -0.374181       -10.1820
  54   1.0000      -0.371606       -10.1119
  55   1.0000      -0.364143        -9.9088
  56   1.0000      -0.360346        -9.8055
  57   1.0000      -0.353893        -9.6299
  58   1.0000      -0.349211        -9.5025
  59   1.0000      -0.345306        -9.3963
  60   1.0000      -0.343146        -9.3375
  61   1.0000      -0.342657        -9.3242
  62   1.0000      -0.337080        -9.1724
  63   1.0000      -0.332929        -9.0595
  64   1.0000      -0.330718        -8.9993
  65   1.0000      -0.330453        -8.9921
  66   1.0000      -0.327822        -8.9205
  67   1.0000      -0.326723        -8.8906
  68   1.0000      -0.326375        -8.8811
  69   1.0000      -0.322102        -8.7648
  70   1.0000      -0.321672        -8.7531
  71   1.0000      -0.320553        -8.7227
  72   1.0000      -0.313453        -8.5295
  73   1.0000      -0.312248        -8.4967
  74   1.0000      -0.308559        -8.3963
  75   1.0000      -0.305944        -8.3252
  76   1.0000      -0.305102        -8.3023
  77   1.0000      -0.298292        -8.1169
  78   1.0000      -0.291723        -7.9382
  79   1.0000      -0.291437        -7.9304
  80   1.0000      -0.288932        -7.8622
  81   1.0000      -0.285746        -7.7756
  82   1.0000      -0.282006        -7.6738
  83   1.0000      -0.277527        -7.5519
  84   1.0000      -0.276536        -7.5249
  85   1.0000      -0.276075        -7.5124
  86   1.0000      -0.271759        -7.3949
  87   1.0000      -0.270482        -7.3602
  88   1.0000      -0.269622        -7.3368
  89   1.0000      -0.266616        -7.2550
  90   1.0000      -0.266148        -7.2423
  91   1.0000      -0.266090        -7.2407
  92   1.0000      -0.262092        -7.1319
  93   1.0000      -0.261579        -7.1179
  94   1.0000      -0.260605        -7.0914
  95   1.0000      -0.259588        -7.0638
  96   1.0000      -0.257029        -6.9941
  97   1.0000      -0.255487        -6.9521
  98   1.0000      -0.254951        -6.9376
  99   1.0000      -0.254549        -6.9266
 100   1.0000      -0.251560        -6.8453
 101   1.0000      -0.251324        -6.8389
 102   1.0000      -0.249455        -6.7880
 103   1.0000      -0.246884        -6.7181
 104   1.0000      -0.241198        -6.5633
 105   1.0000      -0.239607        -6.5200
 106   1.0000      -0.237933        -6.4745
 107   1.0000      -0.229782        -6.2527
 108   1.0000      -0.180176        -4.9028
 109   0.0000      -0.167434        -4.5561
 110   0.0000      -0.167268        -4.5516
 111   0.0000      -0.159564        -4.3420
 112   0.0000      -0.119143        -3.2420
 113   0.0000      -0.112748        -3.0680

                 SPIN DOWN ORBITALS
  NO   OCC          E(Eh)            E(eV)
   0   1.0000    -255.643244     -6956.4063
   1   1.0000     -29.866276      -812.7027
   2   1.0000     -25.715972      -699.7672
   3   1.0000     -25.715505      -699.7545
   4   1.0000     -25.714445      -699.7256
   5   1.0000      -4.116462      -112.0146
   6   1.0000      -4.116229      -112.0083
   7   1.0000      -4.112244      -111.8998
   8   1.0000      -4.112208      -111.8989
   9   1.0000      -4.110478      -111.8518
  10   1.0000      -4.110470      -111.8516
  11   1.0000      -4.110147      -111.8428
  12   1.0000      -4.110066      -111.8406
  13   1.0000      -4.105134      -111.7064
  14   1.0000      -4.104831      -111.6981
  15   1.0000      -3.353107       -91.2427
  16   1.0000      -2.306236       -62.7559
  17   1.0000      -2.303373       -62.6780
  18   1.0000      -2.303138       -62.6716
  19   1.0000      -2.302186       -62.6457
  20   1.0000      -2.301362       -62.6232
  21   1.0000      -2.301008       -62.6136
  22   1.0000      -2.300948       -62.6120
  23   1.0000      -2.300491       -62.5995
  24   1.0000      -2.299785       -62.5803
  25   1.0000      -2.299600       -62.5753
  26   1.0000      -2.299294       -62.5670
  27   1.0000      -2.299132       -62.5626
  28   1.0000      -2.297167       -62.5091
  29   1.0000      -2.296892       -62.5016
  30   1.0000      -2.296653       -62.4951
  31   1.0000      -2.296394       -62.4881
  32   1.0000      -2.295509       -62.4640
  33   1.0000      -2.295339       -62.4593
  34   1.0000      -2.294732       -62.4428
  35   1.0000      -2.294617       -62.4397
  36   1.0000      -2.294390       -62.4335
  37   1.0000      -2.294241       -62.4295
  38   1.0000      -2.294115       -62.4260
  39   1.0000      -2.293077       -62.3978
  40   1.0000      -2.293032       -62.3966
  41   1.0000      -2.292636       -62.3858
  42   1.0000      -2.291490       -62.3546
  43   1.0000      -2.288823       -62.2820
  44   1.0000      -2.286385       -62.2157
  45   1.0000      -2.285838       -62.2008
  46   1.0000      -2.120850       -57.7113
  47   1.0000      -2.118946       -57.6595
  48   1.0000      -2.118493       -57.6471
  49   1.0000      -0.428131       -11.6500
  50   1.0000      -0.383154       -10.4261
  51   1.0000      -0.374928       -10.2023
  52   1.0000      -0.371427       -10.1070
  53   1.0000      -0.361890        -9.8475
  54   1.0000      -0.359957        -9.7949
  55   1.0000      -0.359213        -9.7747
  56   1.0000      -0.357570        -9.7300
  57   1.0000      -0.355855        -9.6833
  58   1.0000      -0.348978        -9.4962
  59   1.0000      -0.346200        -9.4206
  60   1.0000      -0.344622        -9.3776
  61   1.0000      -0.337716        -9.1897
  62   1.0000      -0.336123        -9.1464
  63   1.0000      -0.331962        -9.0331
  64   1.0000      -0.328970        -8.9517
  65   1.0000      -0.327891        -8.9224
  66   1.0000      -0.327509        -8.9120
  67   1.0000      -0.326096        -8.8735
  68   1.0000      -0.325261        -8.8508
  69   1.0000      -0.321788        -8.7563
  70   1.0000      -0.317527        -8.6403
  71   1.0000      -0.314450        -8.5566
  72   1.0000      -0.308322        -8.3899
  73   1.0000      -0.308203        -8.3866
  74   1.0000      -0.304081        -8.2745
  75   1.0000      -0.301499        -8.2042
  76   1.0000      -0.301025        -8.1913
  77   1.0000      -0.291584        -7.9344
  78   1.0000      -0.290140        -7.8951
  79   1.0000      -0.288539        -7.8515
  80   1.0000      -0.285491        -7.7686
  81   1.0000      -0.279511        -7.6059
  82   1.0000      -0.276161        -7.5147
  83   1.0000      -0.275878        -7.5070
  84   1.0000      -0.275563        -7.4985
  85   1.0000      -0.274166        -7.4604
  86   1.0000      -0.272929        -7.4268
  87   1.0000      -0.270171        -7.3517
  88   1.0000      -0.267990        -7.2924
  89   1.0000      -0.265633        -7.2282
  90   1.0000      -0.265479        -7.2241
  91   1.0000      -0.261978        -7.1288
  92   1.0000      -0.261193        -7.1074
  93   1.0000      -0.258595        -7.0367
  94   1.0000      -0.258569        -7.0360
  95   1.0000      -0.255700        -6.9579
  96   1.0000      -0.254110        -6.9147
  97   1.0000      -0.253986        -6.9113
  98   1.0000      -0.249817        -6.7979
  99   1.0000      -0.245792        -6.6883
 100   1.0000      -0.241863        -6.5814
 101   1.0000      -0.240758        -6.5514
 102   1.0000      -0.237896        -6.4735
 103   1.0000      -0.198661        -5.4058
 104   1.0000      -0.194396        -5.2898
 105   1.0000      -0.190917        -5.1951
 106   1.0000      -0.189045        -5.1442
 107   0.0000      -0.148659        -4.0452
 108   0.0000      -0.147423        -4.0116
 109   0.0000      -0.142790        -3.8855
 110   0.0000      -0.140468        -3.8223
 111   0.0000      -0.137972        -3.7544

MULLIKEN ATOMIC CHARGES AND SPIN POPULATIONS
--------------------------------------------
   0 Au:    0.218276   -0.112803
   1 Au:    0.206653   -0.045798
   2 Au:    0.205025   -0.043148
   3 Au:    0.203263   -0.119438
   4 Au:    0.198136   -0.133266
   5 Au:    0.197279   -0.131011
   6 Au:    0.198564   -0.116874
   7 Au:    0.199107   -0.117270
   8 Au:    0.203052   -0.119341
   9 Au:    0.217551   -0.112601
  10 Fe:   -2.046906    3.051550
Sum of atomic charges         :   -0.0000000

LOEWDIN ATOMIC CHARGES AND SPIN POPULATIONS
-------------------------------------------
   0 Au:    0.099170   -0.130928
   1 Au:    0.062522   -0.040379
   2 Au:    0.062521   -0.039574
   3 Au:    0.047575   -0.139340
   4 Au:    0.029883   -0.110423
   5 Au:    0.029977   -0.109660
   6 Au:    0.045387   -0.138641
   7 Au:    0.045325   -0.139080
   8 Au:    0.047144   -0.139360
   9 Au:    0.099605   -0.130740
  10 Fe:   -0.569107    3.118125

  Mayer bond orders larger than 0.100000
B(  0-Au,  3-Au) :   0.2052 B(  0-Au,  4-Au) :   0.1247 B(  0-Au,  5-Au) :   0.1299
B(  0-Au,  6-Au) :   0.2028 B(  0-Au, 10-Fe) :   0.5869 B(  1-Au,  2-Au) :   0.3942
B(  1-Au, 10-Fe) :   0.6490 B(  2-Au, 10-Fe) :   0.6500 B(  3-Au,  4-Au) :   0.1400
B(  3-Au,  7-Au) :   0.2927 B(  3-Au, 10-Fe) :   0.5355 B(  4-Au,  5-Au) :   0.3353
B(  4-Au,  7-Au) :   0.1429 B(  4-Au,  9-Au) :   0.1280 B(  4-Au, 10-Fe) :   0.5706
B(  5-Au,  6-Au) :   0.1399 B(  5-Au,  8-Au) :   0.1396 B(  5-Au,  9-Au) :   0.1246
B(  5-Au, 10-Fe) :   0.5711 B(  6-Au,  8-Au) :   0.2936 B(  6-Au, 10-Fe) :   0.5313
B(  7-Au,  9-Au) :   0.2027 B(  7-Au, 10-Fe) :   0.5304 B(  8-Au,  9-Au) :   0.2057
B(  8-Au, 10-Fe) :   0.5344 B(  9-Au, 10-Fe) :   0.5880

FINAL SINGLE POINT ENERGY     -2622.115522231714

DIPOLE MOMENT
-------------
                                X             Y             Z
Electronic contribution:     -2.78193       7.55425      -6.00926
Nuclear contribution   :      2.70053      -7.33113       5.83336
                        -----------------------------------------
Total Dipole Moment    :     -0.08141       0.22312      -0.17590
                        -----------------------------------------
Magnitude (a.u.)       :      0.29555
Magnitude (Debye)      :      0.75122

Rotational constants in cm-1:     0.002045     0.001763     0.001619
Rotational constants in MHz :    61.304219    52.865788    48.535942

                             ****ORCA TERMINATED NORMALLY****
TOTAL RUN TIME: 0 days 0 hours 4 minutes 5 seconds 147 msec
