                         Program Version 5.0.3 -  RELEASE  -
|  1> !CASSCF def2-TZVP def2-TZVP/C
|  2> !MOREAD RIJCOSX
|  3> %maxcore 6000
|  4> %moinp "pbe.qro"
|  5> %pal nprocs 16 end
|  6>
|  7> %casscf
|  8>  mult 6,4
|  9>  bweight 1,1
| 10>  nroots 1,24
| 11>  nel 5
| 12>  norb 5
| 13> end
| 14>
| 15>
| 16> *xyzfile 0 6 pbe.xyz
| 17>
| 18>
| 19>                          ****END OF INPUT****

CARTESIAN COORDINATES (ANGSTROEM)
---------------------------------
  Au     7.451772    9.713351   10.404105
  Au    11.808446    8.630598    7.741597
  Au     9.907223    8.740193    9.734464
  Au     9.960194    6.457161    8.174285
  Au    11.134092    9.801363    5.275767
  Au     7.272410   10.695812    7.870803
  Au     8.592503   10.996278    5.472336
  Au     8.895353    8.465621    4.148222
  Au    10.903038    6.986792    5.556480
  Au     8.133667    6.490635    6.079385
  Au     6.688003    8.857328    5.883818
  Au     7.358678    7.750670    8.501876
  Mn     9.249779    8.880684    6.979337

 Total Charge           Charge          ....    0
 Multiplicity           Mult            ....    6
 Number of Electrons    NEL             ....  253
 Basis Dimension        Dim             ....  525

ORBITAL ENERGIES
----------------

  NO   OCC          E(Eh)            E(eV)
   0   2.0000    -240.558561     -6545.9312
   1   2.0000     -29.133851      -792.7724
   2   2.0000     -24.839212      -675.9093
   3   2.0000     -24.838935      -675.9018
   4   2.0000     -24.837988      -675.8760
   5   2.0000      -4.738605      -128.9440
   6   2.0000      -4.729928      -128.7079
   7   2.0000      -4.728242      -128.6620
   8   2.0000      -4.715512      -128.3156
   9   2.0000      -4.715038      -128.3027
  10   2.0000      -4.714305      -128.2827
  11   2.0000      -4.712890      -128.2442
  12   2.0000      -4.711971      -128.2192
  13   2.0000      -4.710526      -128.1799
  14   2.0000      -4.709036      -128.1394
  15   2.0000      -4.707241      -128.0905
  16   2.0000      -4.705506      -128.0433
  17   2.0000      -3.839904      -104.4891
  18   2.0000      -2.779046       -75.6217
  19   2.0000      -2.777052       -75.5674
  20   2.0000      -2.773244       -75.4638
  21   2.0000      -2.768696       -75.3400
  22   2.0000      -2.768627       -75.3382
  23   2.0000      -2.766333       -75.2758
  24   2.0000      -2.764647       -75.2299
  25   2.0000      -2.764155       -75.2165
  26   2.0000      -2.763820       -75.2074
  27   2.0000      -2.753991       -74.9399
  28   2.0000      -2.753209       -74.9186
  29   2.0000      -2.752936       -74.9112
  30   2.0000      -2.752213       -74.8915
  31   2.0000      -2.751681       -74.8770
  32   2.0000      -2.751203       -74.8640
  33   2.0000      -2.750686       -74.8500
  34   2.0000      -2.750142       -74.8352
  35   2.0000      -2.749202       -74.8096
  36   2.0000      -2.748534       -74.7914
  37   2.0000      -2.748087       -74.7793
  38   2.0000      -2.747902       -74.7742
  39   2.0000      -2.747670       -74.7679
  40   2.0000      -2.746773       -74.7435
  41   2.0000      -2.746733       -74.7424
  42   2.0000      -2.745718       -74.7148
  43   2.0000      -2.745225       -74.7014
  44   2.0000      -2.744635       -74.6853
  45   2.0000      -2.744001       -74.6681
  46   2.0000      -2.743522       -74.6550
  47   2.0000      -2.742322       -74.6224
  48   2.0000      -2.741629       -74.6035
  49   2.0000      -2.740841       -74.5821
  50   2.0000      -2.740152       -74.5633
  51   2.0000      -2.739075       -74.5340
  52   2.0000      -2.738412       -74.5160
  53   2.0000      -2.738021       -74.5054
  54   2.0000      -2.509422       -68.2848
  55   2.0000      -2.507984       -68.2457
  56   2.0000      -2.507190       -68.2241
  57   2.0000      -0.590707       -16.0739
  58   2.0000      -0.563031       -15.3208
  59   2.0000      -0.559076       -15.2132
  60   2.0000      -0.555391       -15.1130
  61   2.0000      -0.552689       -15.0394
  62   2.0000      -0.549239       -14.9455
  63   2.0000      -0.548053       -14.9133
  64   2.0000      -0.548014       -14.9122
  65   2.0000      -0.546793       -14.8790
  66   2.0000      -0.543560       -14.7910
  67   2.0000      -0.542542       -14.7633
  68   2.0000      -0.541798       -14.7431
  69   2.0000      -0.539231       -14.6732
  70   2.0000      -0.536093       -14.5878
  71   2.0000      -0.534861       -14.5543
  72   2.0000      -0.528135       -14.3713
  73   2.0000      -0.523778       -14.2527
  74   2.0000      -0.523154       -14.2358
  75   2.0000      -0.521854       -14.2004
  76   2.0000      -0.517227       -14.0745
  77   2.0000      -0.514160       -13.9910
  78   2.0000      -0.512018       -13.9327
  79   2.0000      -0.504840       -13.7374
  80   2.0000      -0.500811       -13.6278
  81   2.0000      -0.498933       -13.5767
  82   2.0000      -0.494179       -13.4473
  83   2.0000      -0.493959       -13.4413
  84   2.0000      -0.492433       -13.3998
  85   2.0000      -0.488942       -13.3048
  86   2.0000      -0.485249       -13.2043
  87   2.0000      -0.483518       -13.1572
  88   2.0000      -0.477633       -12.9971
  89   2.0000      -0.470170       -12.7940
  90   2.0000      -0.469895       -12.7865
  91   2.0000      -0.465822       -12.6757
  92   2.0000      -0.464031       -12.6269
  93   2.0000      -0.461597       -12.5607
  94   2.0000      -0.460464       -12.5299
  95   2.0000      -0.458729       -12.4827
  96   2.0000      -0.456179       -12.4133
  97   2.0000      -0.453936       -12.3522
  98   2.0000      -0.451705       -12.2915
  99   2.0000      -0.450391       -12.2558
 100   2.0000      -0.445467       -12.1218
 101   2.0000      -0.445093       -12.1116
 102   2.0000      -0.444188       -12.0870
 103   2.0000      -0.442963       -12.0536
 104   2.0000      -0.438619       -11.9354
 105   2.0000      -0.437279       -11.8990
 106   2.0000      -0.434719       -11.8293
 107   2.0000      -0.432749       -11.7757
 108   2.0000      -0.429147       -11.6777
 109   2.0000      -0.428212       -11.6522
 110   2.0000      -0.426884       -11.6161
 111   2.0000      -0.424817       -11.5599
 112   2.0000      -0.422786       -11.5046
 113   2.0000      -0.422235       -11.4896
 114   2.0000      -0.416806       -11.3419
 115   2.0000      -0.408572       -11.1178
 116   2.0000      -0.405130       -11.0242
 117   2.0000      -0.403910       -10.9910
 118   2.0000      -0.362515        -9.8645
 119   2.0000      -0.358625        -9.7587
 120   2.0000      -0.312202        -8.4955
 121   2.0000      -0.246995        -6.7211
 122   2.0000      -0.223035        -6.0691
 123   2.0000      -0.215143        -5.8544
 124   1.0000      -0.158650        -4.3171
 125   1.0000      -0.149526        -4.0688
 126   1.0000      -0.156586        -4.2609
 127   1.0000      -0.161944        -4.4067
 128   1.0000      -0.154399        -4.2014
 129   0.0000      -0.056056        -1.5253
 130   0.0000      -0.020270        -0.5516
 131   0.0000      -0.014571        -0.3965
 132   0.0000       0.009017         0.2454
 133   0.0000       0.013239         0.3602

MULLIKEN ATOMIC CHARGES AND SPIN DENSITIES
------------------------------------------
   0 Au:    0.335293    0.005510
   1 Au:    0.175996    0.014145
   2 Au:    0.031157    0.010648
   3 Au:    0.170852    0.009925
   4 Au:    0.434412    0.009224
   5 Au:    0.036120    0.010632
   6 Au:    0.186277    0.013370
   7 Au:    0.166208    0.008457
   8 Au:    0.161667    0.008309
   9 Au:    0.243677    0.007485
  10 Au:    0.130740    0.010981
  11 Au:    0.160153    0.009284
  12 Mn:   -2.232551    3.882029
Sum of atomic charges       :    0.0000000

LOEWDIN ATOMIC CHARGES AND SPIN DENSITIES
-----------------------------------------
   0 Au:    0.119818    0.006411
   1 Au:    0.031758    0.017618
   2 Au:   -0.026202    0.013919
   3 Au:   -0.006696    0.012853
   4 Au:    0.092025    0.013897
   5 Au:   -0.001823    0.014003
   6 Au:    0.015073    0.016738
   7 Au:   -0.003762    0.010978
   8 Au:    0.024924    0.010490
   9 Au:    0.053435    0.011878
  10 Au:   -0.000454    0.013794
  11 Au:   -0.009004    0.014100
  12 Mn:   -0.289092    3.843320

  Mayer bond orders larger than 0.100000
B(  0-Au,  2-Au) :   0.2599 B(  0-Au,  5-Au) :   0.2621 B(  0-Au, 11-Au) :   0.3991
B(  0-Au, 12-Mn) :   0.1295 B(  1-Au,  2-Au) :   0.2544 B(  1-Au,  4-Au) :   0.1113
B(  1-Au,  8-Au) :   0.1591 B(  1-Au, 12-Mn) :   0.5152 B(  2-Au,  3-Au) :   0.1417
B(  2-Au, 11-Au) :   0.1961 B(  2-Au, 12-Mn) :   0.4184 B(  3-Au,  8-Au) :   0.1498
B(  3-Au,  9-Au) :   0.2929 B(  3-Au, 11-Au) :   0.1917 B(  3-Au, 12-Mn) :   0.4929
B(  4-Au,  6-Au) :   0.2060 B(  4-Au,  7-Au) :   0.2062 B(  4-Au,  8-Au) :   0.2242
B(  4-Au, 12-Mn) :   0.3160 B(  5-Au,  6-Au) :   0.1861 B(  5-Au, 10-Au) :   0.1882
B(  5-Au, 11-Au) :   0.2057 B(  5-Au, 12-Mn) :   0.4133 B(  6-Au,  7-Au) :   0.1239
B(  6-Au, 12-Mn) :   0.5416 B(  7-Au,  8-Au) :   0.1156 B(  7-Au,  9-Au) :   0.2003
B(  7-Au, 10-Au) :   0.2231 B(  7-Au, 12-Mn) :   0.3947 B(  8-Au,  9-Au) :   0.1414
B(  8-Au, 12-Mn) :   0.3994 B(  9-Au, 10-Au) :   0.2832 B(  9-Au, 11-Au) :   0.1785
B(  9-Au, 12-Mn) :   0.2273 B( 10-Au, 12-Mn) :   0.4961 B( 11-Au, 12-Mn) :   0.3387

FINAL SINGLE POINT ENERGY     -2767.492717145227

DIPOLE MOMENT
-------------
                                X             Y             Z
Electronic contribution:     -8.77519      -9.06285       3.41190
Nuclear contribution   :      8.76809       9.04227      -3.30805
                        -----------------------------------------
Total Dipole Moment    :     -0.00710      -0.02058       0.10385
                        -----------------------------------------
Magnitude (a.u.)       :      0.10610
Magnitude (Debye)      :      0.26969

Rotational constants in cm-1:     0.001580     0.001289     0.001105
Rotational constants in MHz :    47.367865    38.636460    33.113797

                             ****ORCA TERMINATED NORMALLY****
TOTAL RUN TIME: 0 days 0 hours 45 minutes 9 seconds 565 msec
