                         Program Version 5.0.3 -  RELEASE  -
|  1> !CASSCF def2-TZVP def2-TZVP/C
|  2> !MOREAD RIJCOSX
|  3> %maxcore 6000
|  4> %moinp "pbe.qro"
|  5> %pal nprocs 16 end
|  6>
|  7> %casscf
|  8>  mult 6,4
|  9>  bweight 1,1
| 10>  nroots 1,24
| 11>  nel 5
| 12>  norb 5
| 13> end
| 14>
| 15>
| 16> *xyzfile 0 6 pbe.xyz
| 17>
| 18>
| 19>                          ****END OF INPUT****

CARTESIAN COORDINATES (ANGSTROEM)
---------------------------------
  Au     5.617244    6.297225    9.466842
  Au     5.861047    9.102528    9.338027
  Au     6.331228   10.087753    6.821808
  Au     7.801819    7.618676   10.527801
  Au    10.091567    8.479392    9.036365
  Au     9.190233   10.078674    7.084051
  Au    10.134208    6.170339   10.622105
  Au     7.916325    8.797411    4.986538
  Au     6.848084    5.310491    7.184445
  Au     5.078842    7.616839    7.007688
  Au     6.228621    6.652746    4.746421
  Au     7.852035    4.772372    9.774613
  Au     9.708263    5.735192    7.918554
  Au     8.933215    6.255992    5.432449
  Mn     7.817000    7.830846    7.660687

 Total Charge           Charge          ....    0
 Multiplicity           Mult            ....    6
 Number of Electrons    NEL             ....  291
 Basis Dimension        Dim             ....  605

ORBITAL ENERGIES
----------------

  NO   OCC          E(Eh)            E(eV)
   0   2.0000    -240.561147     -6546.0016
   1   2.0000     -29.134823      -792.7988
   2   2.0000     -24.839884      -675.9276
   3   2.0000     -24.839741      -675.9237
   4   2.0000     -24.839723      -675.9232
   5   2.0000      -4.728895      -128.6798
   6   2.0000      -4.719786      -128.4319
   7   2.0000      -4.718013      -128.3837
   8   2.0000      -4.716201      -128.3343
   9   2.0000      -4.715190      -128.3068
  10   2.0000      -4.714896      -128.2988
  11   2.0000      -4.712612      -128.2367
  12   2.0000      -4.711743      -128.2130
  13   2.0000      -4.711542      -128.2076
  14   2.0000      -4.710379      -128.1759
  15   2.0000      -4.709345      -128.1478
  16   2.0000      -4.708324      -128.1200
  17   2.0000      -4.707909      -128.1087
  18   2.0000      -4.707114      -128.0871
  19   2.0000      -3.840023      -104.4923
  20   2.0000      -2.766970       -75.2931
  21   2.0000      -2.765572       -75.2551
  22   2.0000      -2.763446       -75.1972
  23   2.0000      -2.758311       -75.0575
  24   2.0000      -2.758306       -75.0573
  25   2.0000      -2.756913       -75.0194
  26   2.0000      -2.756318       -75.0032
  27   2.0000      -2.755650       -74.9851
  28   2.0000      -2.755156       -74.9716
  29   2.0000      -2.753939       -74.9385
  30   2.0000      -2.752743       -74.9059
  31   2.0000      -2.752706       -74.9049
  32   2.0000      -2.752269       -74.8930
  33   2.0000      -2.751710       -74.8778
  34   2.0000      -2.750792       -74.8529
  35   2.0000      -2.750629       -74.8484
  36   2.0000      -2.750267       -74.8386
  37   2.0000      -2.750089       -74.8337
  38   2.0000      -2.749126       -74.8075
  39   2.0000      -2.748789       -74.7983
  40   2.0000      -2.748654       -74.7947
  41   2.0000      -2.748332       -74.7859
  42   2.0000      -2.747462       -74.7622
  43   2.0000      -2.747042       -74.7508
  44   2.0000      -2.746721       -74.7421
  45   2.0000      -2.746509       -74.7363
  46   2.0000      -2.746269       -74.7298
  47   2.0000      -2.745497       -74.7088
  48   2.0000      -2.744913       -74.6929
  49   2.0000      -2.744685       -74.6867
  50   2.0000      -2.744143       -74.6719
  51   2.0000      -2.744012       -74.6684
  52   2.0000      -2.743679       -74.6593
  53   2.0000      -2.743213       -74.6466
  54   2.0000      -2.742196       -74.6190
  55   2.0000      -2.742155       -74.6178
  56   2.0000      -2.741889       -74.6106
  57   2.0000      -2.741812       -74.6085
  58   2.0000      -2.741270       -74.5938
  59   2.0000      -2.740924       -74.5843
  60   2.0000      -2.739887       -74.5561
  61   2.0000      -2.739495       -74.5454
  62   2.0000      -2.508636       -68.2635
  63   2.0000      -2.508300       -68.2543
  64   2.0000      -2.507828       -68.2415
  65   2.0000      -0.572965       -15.5912
  66   2.0000      -0.557910       -15.1815
  67   2.0000      -0.556872       -15.1533
  68   2.0000      -0.554931       -15.1004
  69   2.0000      -0.553167       -15.0524
  70   2.0000      -0.550810       -14.9883
  71   2.0000      -0.549742       -14.9592
  72   2.0000      -0.547673       -14.9029
  73   2.0000      -0.546520       -14.8716
  74   2.0000      -0.544090       -14.8054
  75   2.0000      -0.542000       -14.7486
  76   2.0000      -0.541211       -14.7271
  77   2.0000      -0.538418       -14.6511
  78   2.0000      -0.534498       -14.5444
  79   2.0000      -0.533537       -14.5183
  80   2.0000      -0.530723       -14.4417
  81   2.0000      -0.530062       -14.4237
  82   2.0000      -0.527414       -14.3517
  83   2.0000      -0.524668       -14.2769
  84   2.0000      -0.523488       -14.2448
  85   2.0000      -0.520151       -14.1540
  86   2.0000      -0.516594       -14.0572
  87   2.0000      -0.515070       -14.0158
  88   2.0000      -0.511187       -13.9101
  89   2.0000      -0.509847       -13.8736
  90   2.0000      -0.508357       -13.8331
  91   2.0000      -0.505557       -13.7569
  92   2.0000      -0.503530       -13.7017
  93   2.0000      -0.499585       -13.5944
  94   2.0000      -0.495678       -13.4881
  95   2.0000      -0.491890       -13.3850
  96   2.0000      -0.490077       -13.3357
  97   2.0000      -0.485953       -13.2234
  98   2.0000      -0.483644       -13.1606
  99   2.0000      -0.481017       -13.0891
 100   2.0000      -0.479138       -13.0380
 101   2.0000      -0.476830       -12.9752
 102   2.0000      -0.471900       -12.8411
 103   2.0000      -0.468869       -12.7586
 104   2.0000      -0.466443       -12.6926
 105   2.0000      -0.463428       -12.6105
 106   2.0000      -0.462400       -12.5826
 107   2.0000      -0.460129       -12.5207
 108   2.0000      -0.458445       -12.4749
 109   2.0000      -0.457265       -12.4428
 110   2.0000      -0.453387       -12.3373
 111   2.0000      -0.452246       -12.3062
 112   2.0000      -0.450949       -12.2709
 113   2.0000      -0.450054       -12.2466
 114   2.0000      -0.448690       -12.2095
 115   2.0000      -0.445735       -12.1291
 116   2.0000      -0.444633       -12.0991
 117   2.0000      -0.443746       -12.0749
 118   2.0000      -0.442553       -12.0425
 119   2.0000      -0.437965       -11.9176
 120   2.0000      -0.437419       -11.9028
 121   2.0000      -0.435866       -11.8605
 122   2.0000      -0.431098       -11.7308
 123   2.0000      -0.429980       -11.7004
 124   2.0000      -0.428099       -11.6492
 125   2.0000      -0.426175       -11.5968
 126   2.0000      -0.425135       -11.5685
 127   2.0000      -0.423291       -11.5183
 128   2.0000      -0.421578       -11.4717
 129   2.0000      -0.420172       -11.4335
 130   2.0000      -0.416658       -11.3378
 131   2.0000      -0.409968       -11.1558
 132   2.0000      -0.408124       -11.1056
 133   2.0000      -0.400609       -10.9011
 134   2.0000      -0.398526       -10.8444
 135   2.0000      -0.390475       -10.6254
 136   2.0000      -0.382372       -10.4049
 137   2.0000      -0.350288        -9.5318
 138   2.0000      -0.345645        -9.4055
 139   2.0000      -0.252498        -6.8708
 140   2.0000      -0.243514        -6.6264
 141   2.0000      -0.238502        -6.4900
 142   2.0000      -0.232888        -6.3372
 143   1.0000      -0.151347        -4.1184
 144   1.0000      -0.156942        -4.2706
 145   1.0000      -0.162520        -4.4224
 146   1.0000      -0.157538        -4.2868
 147   1.0000      -0.156736        -4.2650
 148   0.0000      -0.037404        -1.0178
 149   0.0000      -0.025628        -0.6974
 150   0.0000      -0.010112        -0.2752
 151   0.0000      -0.002865        -0.0780
 152   0.0000       0.001674         0.0455

MULLIKEN ATOMIC CHARGES AND SPIN DENSITIES
------------------------------------------
   0 Au:    0.169190    0.004399
   1 Au:    0.284477    0.007510
   2 Au:    0.217363    0.007784
   3 Au:   -0.181957    0.008221
   4 Au:    0.080219    0.010470
   5 Au:    0.233424    0.010111
   6 Au:    0.393067    0.003631
   7 Au:    0.101175    0.007542
   8 Au:   -0.153237    0.009397
   9 Au:    0.003230    0.008019
  10 Au:    0.350148    0.004125
  11 Au:    0.251155    0.004564
  12 Au:   -0.207179    0.009064
  13 Au:    0.247933    0.006437
  14 Mn:   -1.789008    3.898725
Sum of atomic charges       :    0.0000000

LOEWDIN ATOMIC CHARGES AND SPIN DENSITIES
-----------------------------------------
   0 Au:    0.013309    0.006730
   1 Au:    0.070781    0.010554
   2 Au:    0.027678    0.009971
   3 Au:   -0.080682    0.011761
   4 Au:    0.005119    0.013692
   5 Au:    0.067287    0.013422
   6 Au:    0.114107    0.004724
   7 Au:   -0.032792    0.010743
   8 Au:   -0.039194    0.012061
   9 Au:   -0.022428    0.010292
  10 Au:    0.070666    0.005562
  11 Au:    0.006119    0.005794
  12 Au:   -0.051746    0.011849
  13 Au:    0.046386    0.009681
  14 Mn:   -0.194609    3.863164

  Mayer bond orders larger than 0.100000
B(  0-Au,  1-Au) :   0.1406 B(  0-Au,  3-Au) :   0.3353 B(  0-Au,  8-Au) :   0.2944
B(  0-Au,  9-Au) :   0.1033 B(  0-Au, 11-Au) :   0.2574 B(  0-Au, 14-Mn) :   0.2630
B(  1-Au,  2-Au) :   0.2144 B(  1-Au,  3-Au) :   0.3403 B(  1-Au,  9-Au) :   0.1525
B(  1-Au, 14-Mn) :   0.3350 B(  2-Au,  5-Au) :   0.1283 B(  2-Au,  7-Au) :   0.1975
B(  2-Au,  9-Au) :   0.2207 B(  2-Au, 14-Mn) :   0.3798 B(  3-Au,  4-Au) :   0.1459
B(  3-Au,  6-Au) :   0.2907 B(  3-Au, 11-Au) :   0.1820 B(  3-Au, 12-Au) :   0.1378
B(  3-Au, 14-Mn) :   0.3461 B(  4-Au,  5-Au) :   0.3079 B(  4-Au,  6-Au) :   0.2163
B(  4-Au, 14-Mn) :   0.4269 B(  5-Au,  7-Au) :   0.1916 B(  5-Au, 14-Mn) :   0.4771
B(  6-Au, 11-Au) :   0.1811 B(  6-Au, 12-Au) :   0.2664 B(  7-Au, 10-Au) :   0.2743
B(  7-Au, 13-Au) :   0.2276 B(  7-Au, 14-Mn) :   0.3427 B(  8-Au,  9-Au) :   0.2696
B(  8-Au, 10-Au) :   0.2241 B(  8-Au, 11-Au) :   0.2403 B(  8-Au, 12-Au) :   0.1827
B(  8-Au, 13-Au) :   0.1432 B(  8-Au, 14-Mn) :   0.4608 B(  9-Au, 10-Au) :   0.2536
B(  9-Au, 14-Mn) :   0.3804 B( 10-Au, 13-Au) :   0.1920 B( 10-Au, 14-Mn) :   0.1307
B( 11-Au, 12-Au) :   0.2305 B( 11-Au, 14-Mn) :   0.1177 B( 12-Au, 13-Au) :   0.3868
B( 12-Au, 14-Mn) :   0.4226 B( 13-Au, 14-Mn) :   0.2917

FINAL SINGLE POINT ENERGY     -3037.175608864710

DIPOLE MOMENT
-------------
                                X             Y             Z
Electronic contribution:     -4.79486     -17.40056       7.11719
Nuclear contribution   :      4.81103      17.35415      -7.03448
                        -----------------------------------------
Total Dipole Moment    :      0.01616      -0.04641       0.08270
                        -----------------------------------------
Magnitude (a.u.)       :      0.09620
Magnitude (Debye)      :      0.24452

Rotational constants in cm-1:     0.001225     0.000913     0.000900
Rotational constants in MHz :    36.736887    27.369386    26.994364

                             ****ORCA TERMINATED NORMALLY****
TOTAL RUN TIME: 0 days 0 hours 6 minutes 15 seconds 464 msec
