                         Program Version 5.0.3 -  RELEASE  -
|  1> !SC-NEVPT2 def2-TZVP def2-TZVP/C
|  2> !MOREAD RIJCOSX def2/J
|  3> %maxcore 4000
|  4> %moinp "casscf.gbw"
|  5> %pal nprocs 6 end
|  6>
|  7> %casscf
|  8>  mult 6,4
|  9>  bweight 1,1
| 10>  nroots 1,24
| 11>  nel 5
| 12>  norb 5
| 13>  ptsettings
| 14>   d4tpre 1e-14 # default = 1e-10
| 15>   d3tpre 1e-14
| 16>  end
| 17>  rel
| 18>    dosoc true
| 19>    gtensor true
| 20>  end
| 21> end
| 22>
| 23>
| 24> *xyzfile 0 6 pbe.xyz
| 25>
| 26>
| 27>                          ****END OF INPUT****

CARTESIAN COORDINATES (ANGSTROEM)
---------------------------------
  Au     7.854217    4.999847    8.065852
  Au     8.530977   10.233984    6.642292
  Au     8.368257    8.102018    4.650542
  Au    10.551111    8.257988    6.492332
  Au     9.731423    9.155870    8.963385
  Au     9.434991    5.804699    5.959332
  Au     6.615313    6.039235    5.747901
  Au     8.269088    6.982495   10.036340
  Au     5.772994    6.769128    8.778628
  Au     6.944722    9.346760    9.364526
  Au     4.147254    6.934988    6.525948
  Au     4.413037    9.158614    8.169101
  Au     6.131802   11.232155    7.486868
  Au     6.029521    8.934444    5.805718
  Mn     7.987004    7.687878    7.403734

 Total Charge           Charge          ....    0
 Multiplicity           Mult            ....    6
 Number of Electrons    NEL             ....  291
 Basis Dimension        Dim             ....  605

ORBITAL ENERGIES
----------------

  NO   OCC          E(Eh)            E(eV)
   0   2.0000    -240.555172     -6545.8390
   1   2.0000     -29.129893      -792.6647
   2   2.0000     -24.835432      -675.8065
   3   2.0000     -24.834562      -675.7828
   4   2.0000     -24.834336      -675.7766
   5   2.0000      -4.731825      -128.7595
   6   2.0000      -4.722006      -128.4923
   7   2.0000      -4.721096      -128.4676
   8   2.0000      -4.720461      -128.4503
   9   2.0000      -4.717290      -128.3640
  10   2.0000      -4.716997      -128.3560
  11   2.0000      -4.715528      -128.3160
  12   2.0000      -4.713848      -128.2703
  13   2.0000      -4.713094      -128.2498
  14   2.0000      -4.709112      -128.1414
  15   2.0000      -4.708641      -128.1286
  16   2.0000      -4.708479      -128.1242
  17   2.0000      -4.708106      -128.1141
  18   2.0000      -4.706656      -128.0746
  19   2.0000      -3.836430      -104.3946
  20   2.0000      -2.770489       -75.3888
  21   2.0000      -2.767954       -75.3198
  22   2.0000      -2.767686       -75.3126
  23   2.0000      -2.763518       -75.1992
  24   2.0000      -2.760376       -75.1137
  25   2.0000      -2.758775       -75.0701
  26   2.0000      -2.758110       -75.0520
  27   2.0000      -2.756737       -75.0146
  28   2.0000      -2.756562       -75.0099
  29   2.0000      -2.756330       -75.0036
  30   2.0000      -2.756211       -75.0003
  31   2.0000      -2.756073       -74.9966
  32   2.0000      -2.755090       -74.9698
  33   2.0000      -2.754413       -74.9514
  34   2.0000      -2.753868       -74.9365
  35   2.0000      -2.752969       -74.9121
  36   2.0000      -2.752775       -74.9068
  37   2.0000      -2.751867       -74.8821
  38   2.0000      -2.751005       -74.8587
  39   2.0000      -2.750681       -74.8498
  40   2.0000      -2.750193       -74.8366
  41   2.0000      -2.748975       -74.8034
  42   2.0000      -2.748413       -74.7881
  43   2.0000      -2.748053       -74.7783
  44   2.0000      -2.747944       -74.7754
  45   2.0000      -2.747737       -74.7697
  46   2.0000      -2.747235       -74.7561
  47   2.0000      -2.747106       -74.7526
  48   2.0000      -2.746860       -74.7459
  49   2.0000      -2.746324       -74.7313
  50   2.0000      -2.745218       -74.7012
  51   2.0000      -2.744819       -74.6903
  52   2.0000      -2.744294       -74.6760
  53   2.0000      -2.743664       -74.6589
  54   2.0000      -2.743314       -74.6494
  55   2.0000      -2.742212       -74.6194
  56   2.0000      -2.741671       -74.6047
  57   2.0000      -2.741066       -74.5882
  58   2.0000      -2.740529       -74.5736
  59   2.0000      -2.739720       -74.5516
  60   2.0000      -2.739068       -74.5338
  61   2.0000      -2.738548       -74.5197
  62   2.0000      -2.505279       -68.1721
  63   2.0000      -2.504871       -68.1610
  64   2.0000      -2.504496       -68.1508
  65   2.0000      -0.583902       -15.8888
  66   2.0000      -0.559890       -15.2354
  67   2.0000      -0.559098       -15.2138
  68   2.0000      -0.554844       -15.0981
  69   2.0000      -0.553725       -15.0676
  70   2.0000      -0.553124       -15.0513
  71   2.0000      -0.549890       -14.9633
  72   2.0000      -0.549747       -14.9594
  73   2.0000      -0.546739       -14.8775
  74   2.0000      -0.545663       -14.8482
  75   2.0000      -0.544032       -14.8039
  76   2.0000      -0.542871       -14.7723
  77   2.0000      -0.540594       -14.7103
  78   2.0000      -0.539455       -14.6793
  79   2.0000      -0.538840       -14.6626
  80   2.0000      -0.536669       -14.6035
  81   2.0000      -0.531629       -14.4664
  82   2.0000      -0.530635       -14.4393
  83   2.0000      -0.528644       -14.3851
  84   2.0000      -0.527798       -14.3621
  85   2.0000      -0.519323       -14.1315
  86   2.0000      -0.518043       -14.0967
  87   2.0000      -0.515810       -14.0359
  88   2.0000      -0.513474       -13.9723
  89   2.0000      -0.513217       -13.9653
  90   2.0000      -0.511811       -13.9271
  91   2.0000      -0.506802       -13.7908
  92   2.0000      -0.502319       -13.6688
  93   2.0000      -0.499761       -13.5992
  94   2.0000      -0.494360       -13.4522
  95   2.0000      -0.492629       -13.4051
  96   2.0000      -0.488303       -13.2874
  97   2.0000      -0.487934       -13.2773
  98   2.0000      -0.487381       -13.2623
  99   2.0000      -0.478802       -13.0289
 100   2.0000      -0.477231       -12.9861
 101   2.0000      -0.475626       -12.9424
 102   2.0000      -0.471514       -12.8306
 103   2.0000      -0.468892       -12.7592
 104   2.0000      -0.466288       -12.6883
 105   2.0000      -0.463757       -12.6195
 106   2.0000      -0.462497       -12.5852
 107   2.0000      -0.461172       -12.5491
 108   2.0000      -0.457779       -12.4568
 109   2.0000      -0.456874       -12.4322
 110   2.0000      -0.455262       -12.3883
 111   2.0000      -0.454623       -12.3709
 112   2.0000      -0.453326       -12.3356
 113   2.0000      -0.451703       -12.2915
 114   2.0000      -0.447205       -12.1691
 115   2.0000      -0.446737       -12.1563
 116   2.0000      -0.445591       -12.1251
 117   2.0000      -0.444790       -12.1034
 118   2.0000      -0.442802       -12.0492
 119   2.0000      -0.442326       -12.0363
 120   2.0000      -0.441854       -12.0234
 121   2.0000      -0.438436       -11.9305
 122   2.0000      -0.437168       -11.8959
 123   2.0000      -0.435787       -11.8584
 124   2.0000      -0.434491       -11.8231
 125   2.0000      -0.427143       -11.6232
 126   2.0000      -0.427024       -11.6199
 127   2.0000      -0.423757       -11.5310
 128   2.0000      -0.421694       -11.4749
 129   2.0000      -0.420701       -11.4478
 130   2.0000      -0.417215       -11.3530
 131   2.0000      -0.409843       -11.1524
 132   2.0000      -0.409195       -11.1348
 133   2.0000      -0.407443       -11.0871
 134   2.0000      -0.407284       -11.0828
 135   2.0000      -0.389753       -10.6057
 136   2.0000      -0.372323       -10.1314
 137   2.0000      -0.361044        -9.8245
 138   2.0000      -0.350708        -9.5433
 139   2.0000      -0.262403        -7.1404
 140   2.0000      -0.243045        -6.6136
 141   2.0000      -0.222214        -6.0468
 142   2.0000      -0.219206        -5.9649
 143   1.0000      -0.154552        -4.2056
 144   1.0000      -0.154090        -4.1930
 145   1.0000      -0.155794        -4.2394
 146   1.0000      -0.152268        -4.1434
 147   1.0000      -0.145918        -3.9706
 148   0.0000      -0.050640        -1.3780
 149   0.0000      -0.024262        -0.6602
 150   0.0000      -0.009839        -0.2677
 151   0.0000      -0.006460        -0.1758
 152   0.0000       0.017902         0.4871

MULLIKEN ATOMIC CHARGES AND SPIN DENSITIES
------------------------------------------
   0 Au:    0.268458    0.010348
   1 Au:    0.044736    0.011273
   2 Au:    0.283166    0.008212
   3 Au:    0.319763    0.008252
   4 Au:    0.266727    0.010533
   5 Au:    0.320065    0.008268
   6 Au:    0.044192    0.011364
   7 Au:    0.504102    0.008351
   8 Au:   -0.155507    0.010965
   9 Au:   -0.155172    0.010820
  10 Au:    0.348011    0.004920
  11 Au:    0.174253    0.004805
  12 Au:    0.342322    0.004925
  13 Au:   -0.208761    0.006239
  14 Mn:   -2.396356    3.880725
Sum of atomic charges       :    0.0000000

LOEWDIN ATOMIC CHARGES AND SPIN DENSITIES
-----------------------------------------
   0 Au:    0.060384    0.013399
   1 Au:   -0.050807    0.014627
   2 Au:    0.022194    0.010450
   3 Au:    0.046552    0.011800
   4 Au:    0.057846    0.013616
   5 Au:    0.046545    0.011816
   6 Au:   -0.050874    0.014725
   7 Au:    0.112134    0.012754
   8 Au:   -0.083683    0.014825
   9 Au:   -0.085052    0.014659
  10 Au:    0.135975    0.005399
  11 Au:    0.035017    0.005466
  12 Au:    0.133131    0.005407
  13 Au:   -0.042113    0.010449
  14 Mn:   -0.337249    3.840609

  Mayer bond orders larger than 0.100000
B(  0-Au,  5-Au) :   0.1471 B(  0-Au,  6-Au) :   0.1388 B(  0-Au,  8-Au) :   0.2242
B(  0-Au, 14-Mn) :   0.4386 B(  1-Au,  3-Au) :   0.2200 B(  1-Au,  4-Au) :   0.1364
B(  1-Au,  9-Au) :   0.1180 B(  1-Au, 12-Au) :   0.3030 B(  1-Au, 13-Au) :   0.2299
B(  1-Au, 14-Mn) :   0.4439 B(  2-Au,  3-Au) :   0.1348 B(  2-Au,  5-Au) :   0.1379
B(  2-Au, 13-Au) :   0.2787 B(  2-Au, 14-Mn) :   0.4588 B(  3-Au,  4-Au) :   0.1482
B(  3-Au,  5-Au) :   0.1549 B(  3-Au, 14-Mn) :   0.3679 B(  4-Au,  9-Au) :   0.2218
B(  4-Au, 14-Mn) :   0.4429 B(  5-Au,  6-Au) :   0.2189 B(  5-Au, 14-Mn) :   0.3668
B(  6-Au,  8-Au) :   0.1182 B(  6-Au, 10-Au) :   0.3023 B(  6-Au, 13-Au) :   0.2269
B(  6-Au, 14-Mn) :   0.4460 B(  7-Au,  8-Au) :   0.2458 B(  7-Au,  9-Au) :   0.2495
B(  7-Au, 14-Mn) :   0.3198 B(  8-Au,  9-Au) :   0.1144 B(  8-Au, 10-Au) :   0.2495
B(  8-Au, 11-Au) :   0.2796 B(  8-Au, 13-Au) :   0.1226 B(  8-Au, 14-Mn) :   0.4733
B(  9-Au, 11-Au) :   0.2817 B(  9-Au, 12-Au) :   0.2478 B(  9-Au, 13-Au) :   0.1199
B(  9-Au, 14-Mn) :   0.4710 B( 10-Au, 11-Au) :   0.1929 B( 10-Au, 13-Au) :   0.2122
B( 11-Au, 12-Au) :   0.1957 B( 11-Au, 13-Au) :   0.1838 B( 12-Au, 13-Au) :   0.2115
B( 13-Au, 14-Mn) :   0.3077

FINAL SINGLE POINT ENERGY     -3044.143091247533

DIPOLE MOMENT
-------------
                                X             Y             Z
Electronic contribution:    -23.86940      11.39865      -2.48636
Nuclear contribution   :     23.52579     -11.26818       2.51209
                        -----------------------------------------
Total Dipole Moment    :     -0.34361       0.13047       0.02573
                        -----------------------------------------
Magnitude (a.u.)       :      0.36845
Magnitude (Debye)      :      0.93652

Rotational constants in cm-1:     0.001161     0.001028     0.000926
Rotational constants in MHz :    34.813629    30.830963    27.761768

                             ****ORCA TERMINATED NORMALLY****
TOTAL RUN TIME: 0 days 2 hours 14 minutes 21 seconds 679 msec
