                         Program Version 5.0.3 -  RELEASE  -
|  1> !RI-B2PLYP def2-TZVP def2-TZVP/C
|  2> !RIJCOSX VERYSLOWCONV
|  3>
|  4> %scf
|  5>   AutoTRAHIter 200
|  6>   maxiter 400
|  7> end
|  8>
|  9>
| 10> %pal nprocs 6 end
| 11>
| 12> *xyzfile 0 5 pbe.xyz
| 13>
| 14> $new_job
| 15>
| 16> !RI-B2PLYP def2-TZVP def2-TZVP/C
| 17> !RIJCOSX VERYSLOWCONV
| 18>
| 19> %scf
| 20>   AutoTRAHIter 200
| 21>   maxiter 400
| 22> end
| 23>
| 24>
| 25> %pal nprocs 6 end
| 26>
| 27> *xyzfile 0 3 pbe.xyz
| 28>
| 29>
| 30>
| 31>
| 32>
| 33>                          ****END OF INPUT****
 Total Charge           Charge          ....    0
 Multiplicity           Mult            ....    5
 Number of Electrons    NEL             ....  252
MP2 TOTAL ENERGY:    -2671.275582136 Eh
FINAL SINGLE POINT ENERGY     -2671.275582136367

CARTESIAN COORDINATES (ANGSTROEM)
---------------------------------
  Au     8.774593    5.312964   11.069863
  Au     6.391537    4.385235    9.894776
  Au     7.763016    3.379600    7.743069
  Au    10.224859    4.253261    8.791593
  Au    10.644535    6.729138    7.768871
  Au     8.311835    5.358054    5.973885
  Au     8.613205    7.958316    6.086615
  Au     9.149954    7.854868   10.202518
  Au    10.061246    9.396553    8.113532
  Au     8.276228   10.648704    6.432977
  Au     6.036970    7.059322    9.639675
  Au     7.223895    9.005093    8.348705
  Cr     8.203061    5.984823    8.549332

 Multiplicity           Mult            ....    3
 Number of Electrons    NEL             ....  252
 Basis Dimension        Dim             ....  525

ORBITAL ENERGIES
----------------
                 SPIN UP ORBITALS
  NO   OCC          E(Eh)            E(eV)
   0   1.0000    -217.761202     -5925.5836
   1   1.0000     -25.449975      -692.5290
   2   1.0000     -21.589403      -587.4775
   3   1.0000     -21.588935      -587.4648
   4   1.0000     -21.583535      -587.3178
   5   1.0000      -4.398024      -119.6763
   6   1.0000      -4.395239      -119.6005
   7   1.0000      -4.395134      -119.5977
   8   1.0000      -4.391474      -119.4981
   9   1.0000      -4.391318      -119.4938
  10   1.0000      -4.390910      -119.4827
  11   1.0000      -4.388190      -119.4087
  12   1.0000      -4.388000      -119.4036
  13   1.0000      -4.387832      -119.3990
  14   1.0000      -4.387636      -119.3936
  15   1.0000      -4.386969      -119.3755
  16   1.0000      -4.386815      -119.3713
  17   1.0000      -3.235793       -88.0504
  18   1.0000      -2.519688       -68.5642
  19   1.0000      -2.518132       -68.5218
  20   1.0000      -2.517297       -68.4991
  21   1.0000      -2.516842       -68.4868
  22   1.0000      -2.515671       -68.4549
  23   1.0000      -2.515386       -68.4471
  24   1.0000      -2.515061       -68.4383
  25   1.0000      -2.512953       -68.3809
  26   1.0000      -2.512461       -68.3675
  27   1.0000      -2.510333       -68.3096
  28   1.0000      -2.509945       -68.2991
  29   1.0000      -2.509497       -68.2869
  30   1.0000      -2.509418       -68.2847
  31   1.0000      -2.508756       -68.2667
  32   1.0000      -2.508635       -68.2634
  33   1.0000      -2.508270       -68.2535
  34   1.0000      -2.508124       -68.2495
  35   1.0000      -2.507855       -68.2422
  36   1.0000      -2.506843       -68.2147
  37   1.0000      -2.506455       -68.2041
  38   1.0000      -2.506280       -68.1993
  39   1.0000      -2.505827       -68.1870
  40   1.0000      -2.505722       -68.1842
  41   1.0000      -2.505295       -68.1725
  42   1.0000      -2.504901       -68.1618
  43   1.0000      -2.504860       -68.1607
  44   1.0000      -2.504178       -68.1421
  45   1.0000      -2.503617       -68.1269
  46   1.0000      -2.503508       -68.1239
  47   1.0000      -2.502303       -68.0911
  48   1.0000      -2.501587       -68.0716
  49   1.0000      -2.501233       -68.0620
  50   1.0000      -2.501142       -68.0595
  51   1.0000      -2.500333       -68.0375
  52   1.0000      -2.498856       -67.9973
  53   1.0000      -2.498695       -67.9930
  54   1.0000      -2.126188       -57.8565
  55   1.0000      -2.117388       -57.6171
  56   1.0000      -2.116571       -57.5948
  57   1.0000      -0.483586       -13.1590
  58   1.0000      -0.478395       -13.0178
  59   1.0000      -0.475331       -12.9344
  60   1.0000      -0.460539       -12.5319
  61   1.0000      -0.460206       -12.5228
  62   1.0000      -0.459990       -12.5170
  63   1.0000      -0.457077       -12.4377
  64   1.0000      -0.450345       -12.2545
  65   1.0000      -0.448875       -12.2145
  66   1.0000      -0.448080       -12.1929
  67   1.0000      -0.444133       -12.0855
  68   1.0000      -0.442929       -12.0527
  69   1.0000      -0.437764       -11.9122
  70   1.0000      -0.435076       -11.8390
  71   1.0000      -0.434181       -11.8147
  72   1.0000      -0.433163       -11.7870
  73   1.0000      -0.427026       -11.6200
  74   1.0000      -0.424726       -11.5574
  75   1.0000      -0.420492       -11.4422
  76   1.0000      -0.418456       -11.3868
  77   1.0000      -0.416918       -11.3449
  78   1.0000      -0.414412       -11.2767
  79   1.0000      -0.412173       -11.2158
  80   1.0000      -0.409685       -11.1481
  81   1.0000      -0.408631       -11.1194
  82   1.0000      -0.400732       -10.9045
  83   1.0000      -0.400086       -10.8869
  84   1.0000      -0.398637       -10.8475
  85   1.0000      -0.392803       -10.6887
  86   1.0000      -0.392018       -10.6674
  87   1.0000      -0.390915       -10.6373
  88   1.0000      -0.390185       -10.6175
  89   1.0000      -0.385968       -10.5027
  90   1.0000      -0.385755       -10.4969
  91   1.0000      -0.381038       -10.3686
  92   1.0000      -0.379644       -10.3306
  93   1.0000      -0.377665       -10.2768
  94   1.0000      -0.373453       -10.1622
  95   1.0000      -0.372351       -10.1322
  96   1.0000      -0.371950       -10.1213
  97   1.0000      -0.368821       -10.0361
  98   1.0000      -0.368106       -10.0167
  99   1.0000      -0.364287        -9.9127
 100   1.0000      -0.363710        -9.8970
 101   1.0000      -0.362275        -9.8580
 102   1.0000      -0.359964        -9.7951
 103   1.0000      -0.358456        -9.7541
 104   1.0000      -0.357216        -9.7203
 105   1.0000      -0.354491        -9.6462
 106   1.0000      -0.352427        -9.5900
 107   1.0000      -0.349665        -9.5149
 108   1.0000      -0.347757        -9.4630
 109   1.0000      -0.346227        -9.4213
 110   1.0000      -0.345689        -9.4067
 111   1.0000      -0.339559        -9.2399
 112   1.0000      -0.339093        -9.2272
 113   1.0000      -0.335110        -9.1188
 114   1.0000      -0.333320        -9.0701
 115   1.0000      -0.331724        -9.0267
 116   1.0000      -0.330328        -8.9887
 117   1.0000      -0.327488        -8.9114
 118   1.0000      -0.325573        -8.8593
 119   1.0000      -0.324369        -8.8265
 120   1.0000      -0.321046        -8.7361
 121   1.0000      -0.316256        -8.6058
 122   1.0000      -0.308235        -8.3875
 123   1.0000      -0.288008        -7.8371
 124   1.0000      -0.254655        -6.9295
 125   1.0000      -0.242966        -6.6114
 126   1.0000      -0.229561        -6.2467
 127   0.0000      -0.122511        -3.3337
 128   0.0000      -0.103900        -2.8273
 129   0.0000      -0.073387        -1.9970
 130   0.0000      -0.071959        -1.9581
 131   0.0000      -0.053571        -1.4577

                 SPIN DOWN ORBITALS
  NO   OCC          E(Eh)            E(eV)
   0   1.0000    -217.759825     -5925.5461
   1   1.0000     -25.380407      -690.6360
   2   1.0000     -21.529739      -585.8540
   3   1.0000     -21.528853      -585.8299
   4   1.0000     -21.510481      -585.3299
   5   1.0000      -4.399226      -119.7090
   6   1.0000      -4.395598      -119.6103
   7   1.0000      -4.395495      -119.6075
   8   1.0000      -4.392295      -119.5204
   9   1.0000      -4.392139      -119.5162
  10   1.0000      -4.391699      -119.5042
  11   1.0000      -4.389182      -119.4357
  12   1.0000      -4.388965      -119.4298
  13   1.0000      -4.388675      -119.4219
  14   1.0000      -4.388473      -119.4164
  15   1.0000      -4.386347      -119.3586
  16   1.0000      -4.386160      -119.3535
  17   1.0000      -3.022525       -82.2471
  18   1.0000      -2.520169       -68.5773
  19   1.0000      -2.518650       -68.5359
  20   1.0000      -2.517571       -68.5066
  21   1.0000      -2.515871       -68.4603
  22   1.0000      -2.515156       -68.4409
  23   1.0000      -2.515107       -68.4396
  24   1.0000      -2.514418       -68.4208
  25   1.0000      -2.512913       -68.3799
  26   1.0000      -2.512499       -68.3686
  27   1.0000      -2.510867       -68.3242
  28   1.0000      -2.510038       -68.3016
  29   1.0000      -2.509486       -68.2866
  30   1.0000      -2.509422       -68.2848
  31   1.0000      -2.509029       -68.2742
  32   1.0000      -2.508486       -68.2594
  33   1.0000      -2.508136       -68.2498
  34   1.0000      -2.507876       -68.2428
  35   1.0000      -2.507743       -68.2391
  36   1.0000      -2.507623       -68.2359
  37   1.0000      -2.507089       -68.2214
  38   1.0000      -2.506657       -68.2096
  39   1.0000      -2.506299       -68.1999
  40   1.0000      -2.505965       -68.1908
  41   1.0000      -2.505797       -68.1862
  42   1.0000      -2.504660       -68.1553
  43   1.0000      -2.504471       -68.1501
  44   1.0000      -2.504253       -68.1442
  45   1.0000      -2.504127       -68.1408
  46   1.0000      -2.503796       -68.1317
  47   1.0000      -2.502695       -68.1018
  48   1.0000      -2.502179       -68.0877
  49   1.0000      -2.501509       -68.0695
  50   1.0000      -2.501360       -68.0655
  51   1.0000      -2.501101       -68.0584
  52   1.0000      -2.498158       -67.9783
  53   1.0000      -2.497968       -67.9732
  54   1.0000      -1.890470       -51.4423
  55   1.0000      -1.887661       -51.3659
  56   1.0000      -1.846423       -50.2437
  57   1.0000      -0.485579       -13.2133
  58   1.0000      -0.472817       -12.8660
  59   1.0000      -0.463018       -12.5993
  60   1.0000      -0.460673       -12.5356
  61   1.0000      -0.453752       -12.3472
  62   1.0000      -0.453466       -12.3394
  63   1.0000      -0.449406       -12.2290
  64   1.0000      -0.448580       -12.2065
  65   1.0000      -0.442723       -12.0471
  66   1.0000      -0.442074       -12.0295
  67   1.0000      -0.441478       -12.0132
  68   1.0000      -0.440086       -11.9753
  69   1.0000      -0.437402       -11.9023
  70   1.0000      -0.434019       -11.8103
  71   1.0000      -0.431373       -11.7382
  72   1.0000      -0.428537       -11.6611
  73   1.0000      -0.426045       -11.5933
  74   1.0000      -0.423428       -11.5221
  75   1.0000      -0.419752       -11.4220
  76   1.0000      -0.417699       -11.3662
  77   1.0000      -0.414557       -11.2807
  78   1.0000      -0.412429       -11.2228
  79   1.0000      -0.411878       -11.2078
  80   1.0000      -0.408601       -11.1186
  81   1.0000      -0.402787       -10.9604
  82   1.0000      -0.399489       -10.8706
  83   1.0000      -0.396666       -10.7938
  84   1.0000      -0.394086       -10.7236
  85   1.0000      -0.392613       -10.6835
  86   1.0000      -0.391306       -10.6480
  87   1.0000      -0.389627       -10.6023
  88   1.0000      -0.387781       -10.5521
  89   1.0000      -0.385115       -10.4795
  90   1.0000      -0.381931       -10.3929
  91   1.0000      -0.380837       -10.3631
  92   1.0000      -0.379266       -10.3203
  93   1.0000      -0.376166       -10.2360
  94   1.0000      -0.372936       -10.1481
  95   1.0000      -0.372818       -10.1449
  96   1.0000      -0.370654       -10.0860
  97   1.0000      -0.369787       -10.0624
  98   1.0000      -0.368413       -10.0250
  99   1.0000      -0.365539        -9.9468
 100   1.0000      -0.363197        -9.8831
 101   1.0000      -0.362807        -9.8725
 102   1.0000      -0.360981        -9.8228
 103   1.0000      -0.357905        -9.7391
 104   1.0000      -0.355837        -9.6828
 105   1.0000      -0.354051        -9.6342
 106   1.0000      -0.353052        -9.6070
 107   1.0000      -0.349846        -9.5198
 108   1.0000      -0.346133        -9.4188
 109   1.0000      -0.342845        -9.3293
 110   1.0000      -0.341032        -9.2800
 111   1.0000      -0.340289        -9.2597
 112   1.0000      -0.336180        -9.1479
 113   1.0000      -0.334043        -9.0898
 114   1.0000      -0.331646        -9.0245
 115   1.0000      -0.330282        -8.9874
 116   1.0000      -0.327716        -8.9176
 117   1.0000      -0.327233        -8.9045
 118   1.0000      -0.319439        -8.6924
 119   1.0000      -0.299432        -8.1480
 120   1.0000      -0.283254        -7.7077
 121   1.0000      -0.248033        -6.7493
 122   1.0000      -0.221698        -6.0327
 123   1.0000      -0.221521        -6.0279
 124   1.0000      -0.213305        -5.8043
 125   0.0000      -0.086570        -2.3557
 126   0.0000      -0.068291        -1.8583
 127   0.0000      -0.055565        -1.5120
 128   0.0000      -0.048177        -1.3109
 129   0.0000      -0.047814        -1.3011

MULLIKEN ATOMIC CHARGES AND SPIN POPULATIONS
--------------------------------------------
   0 Au:    0.292762   -0.181152
   1 Au:    0.309397   -0.171208
   2 Au:    0.305880   -0.165931
   3 Au:    0.289788   -0.187426
   4 Au:    0.212638   -0.240680
   5 Au:    0.213394   -0.092527
   6 Au:   -0.137041   -0.115683
   7 Au:    0.210443   -0.239235
   8 Au:    0.292243   -0.219673
   9 Au:    0.448826   -0.065518
  10 Au:    0.211254   -0.092991
  11 Au:   -0.130697   -0.121277
  12 Cr:   -2.518887    3.893301
Sum of atomic charges         :   -0.0000000

LOEWDIN ATOMIC CHARGES AND SPIN POPULATIONS
-------------------------------------------
   0 Au:    0.100045   -0.146031
   1 Au:    0.086691   -0.145338
   2 Au:    0.085884   -0.144523
   3 Au:    0.100981   -0.148390
   4 Au:    0.063599   -0.172524
   5 Au:    0.103782   -0.086409
   6 Au:   -0.054374   -0.102355
   7 Au:    0.064200   -0.172341
   8 Au:    0.034531   -0.181460
   9 Au:    0.166955   -0.077084
  10 Au:    0.102731   -0.087932
  11 Au:   -0.054348   -0.105020
  12 Cr:   -0.800677    3.569406

  Mayer bond orders larger than 0.100000
B(  0-Au,  1-Au) :   0.1505 B(  0-Au,  3-Au) :   0.1943 B(  0-Au,  7-Au) :   0.2965
B(  0-Au, 12-Cr) :   0.5638 B(  1-Au,  2-Au) :   0.2349 B(  1-Au,  4-Au) :   0.1018
B(  1-Au, 10-Au) :   0.2553 B(  1-Au, 12-Cr) :   0.4613 B(  2-Au,  3-Au) :   0.1507
B(  2-Au,  5-Au) :   0.2564 B(  2-Au, 12-Cr) :   0.4674 B(  3-Au,  4-Au) :   0.2975
B(  3-Au, 12-Cr) :   0.5543 B(  4-Au,  7-Au) :   0.1325 B(  4-Au,  8-Au) :   0.2157
B(  4-Au, 12-Cr) :   0.4984 B(  5-Au,  6-Au) :   0.4656 B(  5-Au, 12-Cr) :   0.6042
B(  6-Au,  8-Au) :   0.1882 B(  6-Au,  9-Au) :   0.3846 B(  6-Au, 11-Au) :   0.2824
B(  6-Au, 12-Cr) :   0.4380 B(  7-Au,  8-Au) :   0.2182 B(  7-Au, 12-Cr) :   0.5031
B(  8-Au,  9-Au) :   0.2299 B(  8-Au, 11-Au) :   0.1888 B(  8-Au, 12-Cr) :   0.2056
B(  9-Au, 11-Au) :   0.3809 B( 10-Au, 11-Au) :   0.4653 B( 10-Au, 12-Cr) :   0.6032
B( 11-Au, 12-Cr) :   0.4366

MP2 TOTAL ENERGY:    -2671.288741943 Eh
FINAL SINGLE POINT ENERGY     -2671.288741942963

DIPOLE MOMENT
-------------
                                X             Y             Z
Electronic contribution:      9.12455      28.01060      -7.30976
Nuclear contribution   :     -8.87833     -27.85715       7.38871
                        -----------------------------------------
Total Dipole Moment    :      0.24622       0.15345       0.07895
                        -----------------------------------------
Magnitude (a.u.)       :      0.30067
Magnitude (Debye)      :      0.76425

Rotational constants in cm-1:     0.001761     0.001025     0.000952
Rotational constants in MHz :    52.782073    30.737114    28.548189

                             ****ORCA TERMINATED NORMALLY****
TOTAL RUN TIME: 0 days 1 hours 1 minutes 45 seconds 166 msec
