                         Program Version 5.0.3 -  RELEASE  -
|  1> !R2SCAN def2-TZVP VERYSLOWCONV
|  2> !KDIIS
|  3> %scf
|  4>   AutoTRAHIter 200
|  5>   maxiter 400
|  6> end
|  7>
|  8> %pal nprocs 6 end
|  9>
| 10> *xyzfile 0 5 pbe.xyz
| 11>
| 12> $new_job
| 13>
| 14> !R2SCAN def2-TZVP VERYSLOWCONV
| 15> !KDIIS
| 16> %scf
| 17>   AutoTRAHIter 200
| 18>   maxiter 400
| 19> end
| 20>
| 21>
| 22> %pal nprocs 6 end
| 23>
| 24> *xyzfile 0 3 pbe.xyz
| 25>
| 26>
| 27>
| 28>
| 29>
| 30>                          ****END OF INPUT****
 Total Charge           Charge          ....    0
 Multiplicity           Mult            ....    5
 Number of Electrons    NEL             ....  252
FINAL SINGLE POINT ENERGY     -2674.566595252318

CARTESIAN COORDINATES (ANGSTROEM)
---------------------------------
  Au     8.774593    5.312964   11.069863
  Au     6.391537    4.385235    9.894776
  Au     7.763016    3.379600    7.743069
  Au    10.224859    4.253261    8.791593
  Au    10.644535    6.729138    7.768871
  Au     8.311835    5.358054    5.973885
  Au     8.613205    7.958316    6.086615
  Au     9.149954    7.854868   10.202518
  Au    10.061246    9.396553    8.113532
  Au     8.276228   10.648704    6.432977
  Au     6.036970    7.059322    9.639675
  Au     7.223895    9.005093    8.348705
  Cr     8.203061    5.984823    8.549332

 Multiplicity           Mult            ....    3
 Number of Electrons    NEL             ....  252
 Basis Dimension        Dim             ....  525

ORBITAL ENERGIES
----------------
                 SPIN UP ORBITALS
  NO   OCC          E(Eh)            E(eV)
   0   1.0000    -215.301375     -5858.6483
   1   1.0000     -24.604459      -669.5214
   2   1.0000     -20.871469      -567.9415
   3   1.0000     -20.870731      -567.9215
   4   1.0000     -20.869956      -567.9004
   5   1.0000      -4.114693      -111.9665
   6   1.0000      -4.113477      -111.9334
   7   1.0000      -4.113300      -111.9286
   8   1.0000      -4.113072      -111.9224
   9   1.0000      -4.112959      -111.9193
  10   1.0000      -4.110257      -111.8458
  11   1.0000      -4.108739      -111.8045
  12   1.0000      -4.108542      -111.7991
  13   1.0000      -4.108064      -111.7861
  14   1.0000      -4.107926      -111.7823
  15   1.0000      -4.106671      -111.7482
  16   1.0000      -4.106321      -111.7387
  17   1.0000      -2.920633       -79.4745
  18   1.0000      -2.307137       -62.7804
  19   1.0000      -2.305673       -62.7405
  20   1.0000      -2.304689       -62.7138
  21   1.0000      -2.303663       -62.6859
  22   1.0000      -2.303195       -62.6731
  23   1.0000      -2.301466       -62.6261
  24   1.0000      -2.301275       -62.6209
  25   1.0000      -2.299417       -62.5703
  26   1.0000      -2.298973       -62.5582
  27   1.0000      -2.298762       -62.5525
  28   1.0000      -2.298709       -62.5510
  29   1.0000      -2.298596       -62.5480
  30   1.0000      -2.297570       -62.5201
  31   1.0000      -2.297545       -62.5194
  32   1.0000      -2.296869       -62.5010
  33   1.0000      -2.296728       -62.4971
  34   1.0000      -2.296354       -62.4870
  35   1.0000      -2.296272       -62.4847
  36   1.0000      -2.296158       -62.4816
  37   1.0000      -2.295276       -62.4576
  38   1.0000      -2.295266       -62.4574
  39   1.0000      -2.294271       -62.4303
  40   1.0000      -2.294231       -62.4292
  41   1.0000      -2.293849       -62.4188
  42   1.0000      -2.293529       -62.4101
  43   1.0000      -2.293324       -62.4045
  44   1.0000      -2.293272       -62.4031
  45   1.0000      -2.292580       -62.3843
  46   1.0000      -2.292331       -62.3775
  47   1.0000      -2.291750       -62.3617
  48   1.0000      -2.290716       -62.3336
  49   1.0000      -2.289917       -62.3118
  50   1.0000      -2.288534       -62.2742
  51   1.0000      -2.287233       -62.2388
  52   1.0000      -2.286514       -62.2192
  53   1.0000      -2.286360       -62.2150
  54   1.0000      -1.868435       -50.8427
  55   1.0000      -1.866212       -50.7822
  56   1.0000      -1.865757       -50.7698
  57   1.0000      -0.415163       -11.2972
  58   1.0000      -0.394367       -10.7313
  59   1.0000      -0.375936       -10.2298
  60   1.0000      -0.375596       -10.2205
  61   1.0000      -0.364700        -9.9240
  62   1.0000      -0.363918        -9.9027
  63   1.0000      -0.360047        -9.7974
  64   1.0000      -0.358790        -9.7632
  65   1.0000      -0.355264        -9.6672
  66   1.0000      -0.353362        -9.6155
  67   1.0000      -0.349152        -9.5009
  68   1.0000      -0.347893        -9.4666
  69   1.0000      -0.347030        -9.4432
  70   1.0000      -0.343419        -9.3449
  71   1.0000      -0.340324        -9.2607
  72   1.0000      -0.336033        -9.1439
  73   1.0000      -0.333854        -9.0846
  74   1.0000      -0.329781        -8.9738
  75   1.0000      -0.326526        -8.8852
  76   1.0000      -0.324002        -8.8165
  77   1.0000      -0.323737        -8.8093
  78   1.0000      -0.322684        -8.7807
  79   1.0000      -0.321817        -8.7571
  80   1.0000      -0.319432        -8.6922
  81   1.0000      -0.317376        -8.6362
  82   1.0000      -0.312255        -8.4969
  83   1.0000      -0.311303        -8.4710
  84   1.0000      -0.304010        -8.2725
  85   1.0000      -0.301130        -8.1942
  86   1.0000      -0.300406        -8.1745
  87   1.0000      -0.298886        -8.1331
  88   1.0000      -0.298309        -8.1174
  89   1.0000      -0.297057        -8.0833
  90   1.0000      -0.296087        -8.0569
  91   1.0000      -0.291775        -7.9396
  92   1.0000      -0.287928        -7.8349
  93   1.0000      -0.287667        -7.8278
  94   1.0000      -0.283666        -7.7190
  95   1.0000      -0.282963        -7.6998
  96   1.0000      -0.281769        -7.6673
  97   1.0000      -0.280018        -7.6197
  98   1.0000      -0.278640        -7.5822
  99   1.0000      -0.278301        -7.5730
 100   1.0000      -0.275438        -7.4950
 101   1.0000      -0.274720        -7.4755
 102   1.0000      -0.272462        -7.4141
 103   1.0000      -0.269562        -7.3351
 104   1.0000      -0.269313        -7.3284
 105   1.0000      -0.265361        -7.2208
 106   1.0000      -0.264621        -7.2007
 107   1.0000      -0.260773        -7.0960
 108   1.0000      -0.260174        -7.0797
 109   1.0000      -0.257878        -7.0172
 110   1.0000      -0.257790        -7.0148
 111   1.0000      -0.256674        -6.9845
 112   1.0000      -0.253254        -6.8914
 113   1.0000      -0.252270        -6.8646
 114   1.0000      -0.248143        -6.7523
 115   1.0000      -0.246508        -6.7078
 116   1.0000      -0.245693        -6.6857
 117   1.0000      -0.243678        -6.6308
 118   1.0000      -0.241434        -6.5698
 119   1.0000      -0.236538        -6.4365
 120   1.0000      -0.232564        -6.3284
 121   1.0000      -0.229291        -6.2393
 122   1.0000      -0.224720        -6.1149
 123   1.0000      -0.217537        -5.9195
 124   1.0000      -0.214916        -5.8482
 125   1.0000      -0.211127        -5.7450
 126   1.0000      -0.209219        -5.6931
 127   0.0000      -0.176968        -4.8155
 128   0.0000      -0.175338        -4.7712
 129   0.0000      -0.158499        -4.3130
 130   0.0000      -0.133332        -3.6282
 131   0.0000      -0.118627        -3.2280

                 SPIN DOWN ORBITALS
  NO   OCC          E(Eh)            E(eV)
   0   1.0000    -215.300747     -5858.6312
   1   1.0000     -24.544190      -667.8814
   2   1.0000     -20.825665      -566.6951
   3   1.0000     -20.824715      -566.6693
   4   1.0000     -20.822496      -566.6089
   5   1.0000      -4.115632      -111.9921
   6   1.0000      -4.113798      -111.9421
   7   1.0000      -4.113629      -111.9375
   8   1.0000      -4.113594      -111.9366
   9   1.0000      -4.113502      -111.9341
  10   1.0000      -4.110928      -111.8640
  11   1.0000      -4.109173      -111.8163
  12   1.0000      -4.108968      -111.8107
  13   1.0000      -4.107381      -111.7675
  14   1.0000      -4.107237      -111.7636
  15   1.0000      -4.107151      -111.7613
  16   1.0000      -4.106807      -111.7519
  17   1.0000      -2.762581       -75.1736
  18   1.0000      -2.307405       -62.7877
  19   1.0000      -2.305715       -62.7417
  20   1.0000      -2.305160       -62.7266
  21   1.0000      -2.303670       -62.6860
  22   1.0000      -2.302922       -62.6657
  23   1.0000      -2.302021       -62.6412
  24   1.0000      -2.301461       -62.6259
  25   1.0000      -2.300006       -62.5863
  26   1.0000      -2.299412       -62.5702
  27   1.0000      -2.299235       -62.5654
  28   1.0000      -2.298655       -62.5496
  29   1.0000      -2.298438       -62.5437
  30   1.0000      -2.297912       -62.5294
  31   1.0000      -2.297701       -62.5236
  32   1.0000      -2.296986       -62.5042
  33   1.0000      -2.296565       -62.4927
  34   1.0000      -2.296247       -62.4841
  35   1.0000      -2.296065       -62.4791
  36   1.0000      -2.295839       -62.4730
  37   1.0000      -2.295282       -62.4578
  38   1.0000      -2.295051       -62.4515
  39   1.0000      -2.294662       -62.4409
  40   1.0000      -2.294598       -62.4392
  41   1.0000      -2.294200       -62.4283
  42   1.0000      -2.294027       -62.4236
  43   1.0000      -2.293951       -62.4216
  44   1.0000      -2.293793       -62.4173
  45   1.0000      -2.292772       -62.3895
  46   1.0000      -2.292721       -62.3881
  47   1.0000      -2.292306       -62.3768
  48   1.0000      -2.291119       -62.3445
  49   1.0000      -2.290313       -62.3226
  50   1.0000      -2.289199       -62.2923
  51   1.0000      -2.287833       -62.2551
  52   1.0000      -2.285874       -62.2018
  53   1.0000      -2.285714       -62.1974
  54   1.0000      -1.712659       -46.6038
  55   1.0000      -1.709744       -46.5245
  56   1.0000      -1.704855       -46.3915
  57   1.0000      -0.413594       -11.2545
  58   1.0000      -0.390773       -10.6335
  59   1.0000      -0.376376       -10.2417
  60   1.0000      -0.375769       -10.2252
  61   1.0000      -0.365136        -9.9358
  62   1.0000      -0.361919        -9.8483
  63   1.0000      -0.358617        -9.7585
  64   1.0000      -0.354368        -9.6428
  65   1.0000      -0.353851        -9.6288
  66   1.0000      -0.350479        -9.5370
  67   1.0000      -0.348502        -9.4832
  68   1.0000      -0.348463        -9.4821
  69   1.0000      -0.345149        -9.3920
  70   1.0000      -0.344437        -9.3726
  71   1.0000      -0.338336        -9.2066
  72   1.0000      -0.336402        -9.1540
  73   1.0000      -0.334470        -9.1014
  74   1.0000      -0.330311        -8.9882
  75   1.0000      -0.326563        -8.8862
  76   1.0000      -0.325206        -8.8493
  77   1.0000      -0.324609        -8.8331
  78   1.0000      -0.321878        -8.7587
  79   1.0000      -0.320778        -8.7288
  80   1.0000      -0.320220        -8.7136
  81   1.0000      -0.315461        -8.5841
  82   1.0000      -0.312953        -8.5159
  83   1.0000      -0.311380        -8.4731
  84   1.0000      -0.302901        -8.2424
  85   1.0000      -0.301913        -8.2155
  86   1.0000      -0.301785        -8.2120
  87   1.0000      -0.299891        -8.1604
  88   1.0000      -0.299071        -8.1381
  89   1.0000      -0.296641        -8.0720
  90   1.0000      -0.294712        -8.0195
  91   1.0000      -0.292720        -7.9653
  92   1.0000      -0.289305        -7.8724
  93   1.0000      -0.288131        -7.8404
  94   1.0000      -0.284489        -7.7413
  95   1.0000      -0.284121        -7.7313
  96   1.0000      -0.282587        -7.6896
  97   1.0000      -0.280429        -7.6309
  98   1.0000      -0.280002        -7.6192
  99   1.0000      -0.278120        -7.5680
 100   1.0000      -0.277864        -7.5611
 101   1.0000      -0.276027        -7.5111
 102   1.0000      -0.273604        -7.4451
 103   1.0000      -0.271406        -7.3853
 104   1.0000      -0.269802        -7.3417
 105   1.0000      -0.267449        -7.2777
 106   1.0000      -0.266201        -7.2437
 107   1.0000      -0.262488        -7.1427
 108   1.0000      -0.261529        -7.1166
 109   1.0000      -0.259735        -7.0678
 110   1.0000      -0.258605        -7.0370
 111   1.0000      -0.258283        -7.0282
 112   1.0000      -0.254582        -6.9275
 113   1.0000      -0.253867        -6.9081
 114   1.0000      -0.249509        -6.7895
 115   1.0000      -0.248767        -6.7693
 116   1.0000      -0.246840        -6.7169
 117   1.0000      -0.245268        -6.6741
 118   1.0000      -0.244441        -6.6516
 119   1.0000      -0.239385        -6.5140
 120   1.0000      -0.235347        -6.4041
 121   1.0000      -0.222503        -6.0546
 122   1.0000      -0.203019        -5.5244
 123   1.0000      -0.198750        -5.4083
 124   1.0000      -0.193992        -5.2788
 125   0.0000      -0.145613        -3.9623
 126   0.0000      -0.130904        -3.5621
 127   0.0000      -0.114746        -3.1224
 128   0.0000      -0.113007        -3.0751
 129   0.0000      -0.105489        -2.8705

MULLIKEN ATOMIC CHARGES AND SPIN POPULATIONS
--------------------------------------------
   0 Au:    0.303294   -0.151443
   1 Au:    0.313906   -0.158502
   2 Au:    0.313643   -0.158466
   3 Au:    0.297571   -0.151552
   4 Au:    0.203577   -0.137116
   5 Au:    0.192121   -0.033960
   6 Au:   -0.068002   -0.161026
   7 Au:    0.200638   -0.136500
   8 Au:    0.274847   -0.194397
   9 Au:    0.398956   -0.039148
  10 Au:    0.191532   -0.034503
  11 Au:   -0.063045   -0.162515
  12 Cr:   -2.559038    3.519130
Sum of atomic charges         :   -0.0000000

LOEWDIN ATOMIC CHARGES AND SPIN POPULATIONS
-------------------------------------------
   0 Au:    0.113445   -0.121215
   1 Au:    0.094460   -0.128641
   2 Au:    0.093870   -0.128889
   3 Au:    0.113919   -0.121589
   4 Au:    0.080503   -0.118480
   5 Au:    0.124808   -0.058142
   6 Au:   -0.031430   -0.105913
   7 Au:    0.081054   -0.118196
   8 Au:    0.027313   -0.156226
   9 Au:    0.137380   -0.066832
  10 Au:    0.123654   -0.058633
  11 Au:   -0.031640   -0.107078
  12 Cr:   -0.927337    3.289832

  Mayer bond orders larger than 0.100000
B(  0-Au,  1-Au) :   0.1595 B(  0-Au,  3-Au) :   0.2358 B(  0-Au,  7-Au) :   0.3151
B(  0-Au, 12-Cr) :   0.6637 B(  1-Au,  2-Au) :   0.2671 B(  1-Au, 10-Au) :   0.2750
B(  1-Au, 12-Cr) :   0.5286 B(  2-Au,  3-Au) :   0.1597 B(  2-Au,  5-Au) :   0.2751
B(  2-Au, 12-Cr) :   0.5282 B(  3-Au,  4-Au) :   0.3159 B(  3-Au, 12-Cr) :   0.6596
B(  4-Au,  6-Au) :   0.1153 B(  4-Au,  7-Au) :   0.1088 B(  4-Au,  8-Au) :   0.2717
B(  4-Au, 12-Cr) :   0.6407 B(  5-Au,  6-Au) :   0.4952 B(  5-Au, 12-Cr) :   0.6872
B(  6-Au,  8-Au) :   0.1759 B(  6-Au,  9-Au) :   0.4140 B(  6-Au, 11-Au) :   0.2334
B(  6-Au, 12-Cr) :   0.4206 B(  7-Au,  8-Au) :   0.2740 B(  7-Au, 11-Au) :   0.1150
B(  7-Au, 12-Cr) :   0.6417 B(  8-Au,  9-Au) :   0.2604 B(  8-Au, 11-Au) :   0.1766
B(  8-Au, 12-Cr) :   0.2361 B(  9-Au, 11-Au) :   0.4110 B( 10-Au, 11-Au) :   0.4939
B( 10-Au, 12-Cr) :   0.6878 B( 11-Au, 12-Cr) :   0.4219

FINAL SINGLE POINT ENERGY     -2674.580078658396

DIPOLE MOMENT
-------------
                                X             Y             Z
Electronic contribution:      9.06483      27.87550      -7.28431
Nuclear contribution   :     -8.87833     -27.85715       7.38871
                        -----------------------------------------
Total Dipole Moment    :      0.18650       0.01834       0.10440
                        -----------------------------------------
Magnitude (a.u.)       :      0.21452
Magnitude (Debye)      :      0.54526

Rotational constants in cm-1:     0.001761     0.001025     0.000952
Rotational constants in MHz :    52.782073    30.737114    28.548189

                             ****ORCA TERMINATED NORMALLY****
TOTAL RUN TIME: 0 days 0 hours 18 minutes 30 seconds 164 msec
