                         Program Version 5.0.3 -  RELEASE  -
|  1> !CASSCF def2-TZVP def2-TZVP/C
|  2> !MOREAD RIJCOSX
|  3> %maxcore 6000
|  4> %moinp "pbe.qro"
|  5> %pal nprocs 2 end
|  6>
|  7> %casscf
|  8>  mult 5,3
|  9>  bweight 1,1
| 10>  nroots 5,45
| 11>  nel 6
| 12>  norb 5
| 13> end
| 14>
| 15>
| 16> *xyzfile 0 5 pbe.xyz
| 17>
| 18>
| 19>                          ****END OF INPUT****

CARTESIAN COORDINATES (ANGSTROEM)
---------------------------------
  Au     7.547249    7.336289    3.852044
  Au     4.831003    7.641231    4.334740
  Au     4.836273    5.755754    6.370296
  Au     7.558319    5.478969    5.912984
  Au     9.287035    7.709757    5.978770
  Au     6.593218    6.140445    8.481452
  Au     6.561848    9.868892    4.400605
  Au     8.324029    8.368095    8.547542
  Au     5.596777   10.530026    6.969272
  Au     3.868363    8.299372    6.903423
  Au     5.607696    8.673088    9.029924
  Au     8.318790   10.253743    6.511569
  Fe     6.577554    8.004658    6.441081

 Total Charge           Charge          ....    0
 Multiplicity           Mult            ....    5
 Number of Electrons    NEL             ....  254
 Basis Dimension        Dim             ....  525

ORBITAL ENERGIES
----------------

  NO   OCC          E(Eh)            E(eV)
   0   2.0000    -261.400157     -7113.0599
   1   2.0000     -31.960519      -869.6899
   2   2.0000     -27.440727      -746.7001
   3   2.0000     -27.440724      -746.7000
   4   2.0000     -27.440668      -746.6985
   5   2.0000      -4.714065      -128.2762
   6   2.0000      -4.713897      -128.2717
   7   2.0000      -4.713874      -128.2710
   8   2.0000      -4.713826      -128.2697
   9   2.0000      -4.713679      -128.2657
  10   2.0000      -4.713675      -128.2656
  11   2.0000      -4.713645      -128.2648
  12   2.0000      -4.713495      -128.2607
  13   2.0000      -4.713482      -128.2604
  14   2.0000      -4.713460      -128.2598
  15   2.0000      -4.713437      -128.2592
  16   2.0000      -4.713425      -128.2588
  17   2.0000      -4.194182      -114.1295
  18   2.0000      -2.773599       -75.4735
  19   2.0000      -2.773506       -75.4709
  20   2.0000      -2.773486       -75.4704
  21   2.0000      -2.754791       -74.9617
  22   2.0000      -2.754350       -74.9497
  23   2.0000      -2.754132       -74.9437
  24   2.0000      -2.753986       -74.9398
  25   2.0000      -2.753978       -74.9396
  26   2.0000      -2.753515       -74.9269
  27   2.0000      -2.753501       -74.9266
  28   2.0000      -2.753217       -74.9189
  29   2.0000      -2.752054       -74.8872
  30   2.0000      -2.751762       -74.8792
  31   2.0000      -2.751742       -74.8787
  32   2.0000      -2.751539       -74.8732
  33   2.0000      -2.751226       -74.8647
  34   2.0000      -2.750245       -74.8380
  35   2.0000      -2.750175       -74.8361
  36   2.0000      -2.750006       -74.8315
  37   2.0000      -2.749988       -74.8310
  38   2.0000      -2.749362       -74.8139
  39   2.0000      -2.749352       -74.8137
  40   2.0000      -2.749201       -74.8096
  41   2.0000      -2.749188       -74.8092
  42   2.0000      -2.748432       -74.7886
  43   2.0000      -2.747626       -74.7667
  44   2.0000      -2.746916       -74.7474
  45   2.0000      -2.746023       -74.7231
  46   2.0000      -2.745788       -74.7167
  47   2.0000      -2.745619       -74.7121
  48   2.0000      -2.745598       -74.7115
  49   2.0000      -2.745400       -74.7061
  50   2.0000      -2.745340       -74.7045
  51   2.0000      -2.745326       -74.7041
  52   2.0000      -2.745269       -74.7026
  53   2.0000      -2.744417       -74.6794
  54   2.0000      -2.743931       -74.6662
  55   2.0000      -2.743845       -74.6638
  56   2.0000      -2.743833       -74.6635
  57   2.0000      -0.589210       -16.0332
  58   2.0000      -0.557720       -15.1763
  59   2.0000      -0.549195       -14.9444
  60   2.0000      -0.548570       -14.9274
  61   2.0000      -0.548551       -14.9268
  62   2.0000      -0.545761       -14.8509
  63   2.0000      -0.539689       -14.6857
  64   2.0000      -0.539481       -14.6800
  65   2.0000      -0.536918       -14.6103
  66   2.0000      -0.536866       -14.6089
  67   2.0000      -0.536864       -14.6088
  68   2.0000      -0.535755       -14.5786
  69   2.0000      -0.533848       -14.5267
  70   2.0000      -0.533173       -14.5084
  71   2.0000      -0.527151       -14.3445
  72   2.0000      -0.527023       -14.3410
  73   2.0000      -0.523715       -14.2510
  74   2.0000      -0.522177       -14.2091
  75   2.0000      -0.517935       -14.0937
  76   2.0000      -0.508029       -13.8242
  77   2.0000      -0.507830       -13.8187
  78   2.0000      -0.504927       -13.7398
  79   2.0000      -0.503788       -13.7088
  80   2.0000      -0.503618       -13.7041
  81   2.0000      -0.503222       -13.6934
  82   2.0000      -0.501606       -13.6494
  83   2.0000      -0.496637       -13.5142
  84   2.0000      -0.496222       -13.5029
  85   2.0000      -0.494690       -13.4612
  86   2.0000      -0.481692       -13.1075
  87   2.0000      -0.481547       -13.1036
  88   2.0000      -0.477127       -12.9833
  89   2.0000      -0.475042       -12.9266
  90   2.0000      -0.474696       -12.9171
  91   2.0000      -0.474547       -12.9131
  92   2.0000      -0.463005       -12.5990
  93   2.0000      -0.461884       -12.5685
  94   2.0000      -0.461803       -12.5663
  95   2.0000      -0.460133       -12.5208
  96   2.0000      -0.455206       -12.3868
  97   2.0000      -0.453593       -12.3429
  98   2.0000      -0.452604       -12.3160
  99   2.0000      -0.452560       -12.3148
 100   2.0000      -0.441203       -12.0057
 101   2.0000      -0.439784       -11.9671
 102   2.0000      -0.437753       -11.9119
 103   2.0000      -0.437619       -11.9082
 104   2.0000      -0.433673       -11.8008
 105   2.0000      -0.430620       -11.7178
 106   2.0000      -0.425760       -11.5855
 107   2.0000      -0.424700       -11.5567
 108   2.0000      -0.423201       -11.5159
 109   2.0000      -0.423009       -11.5107
 110   2.0000      -0.422883       -11.5072
 111   2.0000      -0.422369       -11.4933
 112   2.0000      -0.422313       -11.4917
 113   2.0000      -0.421372       -11.4661
 114   2.0000      -0.417806       -11.3691
 115   2.0000      -0.415364       -11.3026
 116   2.0000      -0.415161       -11.2971
 117   2.0000      -0.379737       -10.3332
 118   2.0000      -0.345893        -9.4122
 119   2.0000      -0.345645        -9.4055
 120   2.0000      -0.339064        -9.2264
 121   2.0000      -0.241579        -6.5737
 122   2.0000      -0.238683        -6.4949
 123   2.0000      -0.238597        -6.4926
 124   1.2000      -0.267484        -7.2786
 125   1.2000      -0.263947        -7.1824
 126   1.2000      -0.269359        -7.3296
 127   1.2000      -0.274324        -7.4647
 128   1.2000      -0.278212        -7.5705
 129   0.0000      -0.039005        -1.0614
 130   0.0000      -0.032583        -0.8866
 131   0.0000      -0.012986        -0.3534
 132   0.0000       0.002310         0.0628
 133   0.0000       0.040204         1.0940

MULLIKEN ATOMIC CHARGES AND SPIN DENSITIES
------------------------------------------
   0 Au:    0.195655    0.006880
   1 Au:    0.169262    0.008251
   2 Au:    0.195769    0.006873
   3 Au:    0.169231    0.008250
   4 Au:    0.170648    0.008176
   5 Au:    0.170738    0.008183
   6 Au:    0.170747    0.008182
   7 Au:    0.169294    0.008250
   8 Au:    0.169206    0.008254
   9 Au:    0.170604    0.008181
  10 Au:    0.195658    0.006881
  11 Au:    0.195796    0.006872
  12 Fe:   -2.142608    2.906766
Sum of atomic charges       :    0.0000000

LOEWDIN ATOMIC CHARGES AND SPIN DENSITIES
-----------------------------------------
   0 Au:    0.030383    0.008913
   1 Au:    0.023926    0.010358
   2 Au:    0.030410    0.008907
   3 Au:    0.023904    0.010357
   4 Au:    0.024197    0.010279
   5 Au:    0.024194    0.010286
   6 Au:    0.024198    0.010285
   7 Au:    0.023943    0.010357
   8 Au:    0.023883    0.010361
   9 Au:    0.024166    0.010284
  10 Au:    0.030380    0.008915
  11 Au:    0.030435    0.008905
  12 Fe:   -0.314020    2.881793

  Mayer bond orders larger than 0.100000
B(  0-Au,  1-Au) :   0.2207 B(  0-Au,  3-Au) :   0.2214 B(  0-Au,  4-Au) :   0.2215
B(  0-Au,  6-Au) :   0.2216 B(  0-Au, 12-Fe) :   0.3931 B(  1-Au,  2-Au) :   0.2213
B(  1-Au,  6-Au) :   0.2164 B(  1-Au,  9-Au) :   0.2168 B(  1-Au, 12-Fe) :   0.4140
B(  2-Au,  3-Au) :   0.2217 B(  2-Au,  5-Au) :   0.2212 B(  2-Au,  9-Au) :   0.2213
B(  2-Au, 12-Fe) :   0.3927 B(  3-Au,  4-Au) :   0.2159 B(  3-Au,  5-Au) :   0.2161
B(  3-Au, 12-Fe) :   0.4140 B(  4-Au,  7-Au) :   0.2168 B(  4-Au, 11-Au) :   0.2211
B(  4-Au, 12-Fe) :   0.4129 B(  5-Au,  7-Au) :   0.2164 B(  5-Au, 10-Au) :   0.2216
B(  5-Au, 12-Fe) :   0.4131 B(  6-Au,  8-Au) :   0.2161 B(  6-Au, 11-Au) :   0.2213
B(  6-Au, 12-Fe) :   0.4131 B(  7-Au, 10-Au) :   0.2207 B(  7-Au, 11-Au) :   0.2212
B(  7-Au, 12-Fe) :   0.4141 B(  8-Au,  9-Au) :   0.2160 B(  8-Au, 10-Au) :   0.2215
B(  8-Au, 11-Au) :   0.2217 B(  8-Au, 12-Fe) :   0.4141 B(  9-Au, 10-Au) :   0.2216
B(  9-Au, 12-Fe) :   0.4129 B( 10-Au, 12-Fe) :   0.3931 B( 11-Au, 12-Fe) :   0.3927

FINAL SINGLE POINT ENERGY     -2880.106037907627

DIPOLE MOMENT
-------------
                                X             Y             Z
Electronic contribution:     -0.00013      -0.00071      -0.00111
Nuclear contribution   :      0.00016       0.00075       0.00113
                        -----------------------------------------
Total Dipole Moment    :      0.00004       0.00003       0.00002
                        -----------------------------------------
Magnitude (a.u.)       :      0.00005
Magnitude (Debye)      :      0.00014

Rotational constants in cm-1:     0.001398     0.001395     0.001333
Rotational constants in MHz :    41.902041    41.819732    39.950130

                             ****ORCA TERMINATED NORMALLY****
TOTAL RUN TIME: 0 days 2 hours 49 minutes 56 seconds 508 msec
