                         Program Version 5.0.3 -  RELEASE  -
|  1> %pal nprocs 1 end
|  2>
|  3> !PBE def2-TZVP OPT UNO
|  4> !SLOWCONV
|  5>
|  6> *xyzfile 0 6 4.xyz                           ****END OF INPUT****
 Total Charge           Charge          ....    0
 Multiplicity           Mult            ....    6
 Number of Electrons    NEL             ....  311
FINAL SINGLE POINT ENERGY     -3300.908221318256
FINAL SINGLE POINT ENERGY     -3300.911167512454
FINAL SINGLE POINT ENERGY     -3300.911863595256
FINAL SINGLE POINT ENERGY     -3300.912654797753
FINAL SINGLE POINT ENERGY     -3300.913631577310
FINAL SINGLE POINT ENERGY     -3300.914484255479
FINAL SINGLE POINT ENERGY     -3300.915100758486
FINAL SINGLE POINT ENERGY     -3300.915613518443
FINAL SINGLE POINT ENERGY     -3300.916072573661
FINAL SINGLE POINT ENERGY     -3300.916451765451
FINAL SINGLE POINT ENERGY     -3300.920617859212
FINAL SINGLE POINT ENERGY     -3300.920836328865
FINAL SINGLE POINT ENERGY     -3300.921061698954
FINAL SINGLE POINT ENERGY     -3300.921225335624
FINAL SINGLE POINT ENERGY     -3300.921368557845
FINAL SINGLE POINT ENERGY     -3300.921442021773
FINAL SINGLE POINT ENERGY     -3300.921455865047
FINAL SINGLE POINT ENERGY     -3300.921464332868
FINAL SINGLE POINT ENERGY     -3300.921477842578
                    ***********************HURRAY********************

CARTESIAN COORDINATES (ANGSTROEM)
---------------------------------
  Au     6.316233   10.185823    7.949113
  Au     7.711481   10.292990    5.559996
  Au     5.750292    8.366929    5.846178
  Au     9.170108   10.721872    7.886124
  Au     5.658403    8.247870    9.755422
  Au     8.095600    9.533080   10.101182
  Au    10.130058    8.096393    8.679923
  Au     8.351023    6.771940   10.272197
  Au     9.523549    6.297314    6.570055
  Au     7.757853    5.011913    8.203471
  Au    10.208676    8.924089    6.038897
  Au     5.867408    5.501530   10.199434
  Au     8.227617    7.794952    4.446586
  Au     5.100351    6.468882    7.693736
  Au     6.872113    5.751142    5.672451
  Fe     7.579938    7.778206    7.782676

 Multiplicity           Mult            ....    6
 Number of Electrons    NEL             ....  311
 Basis Dimension        Dim             ....  645

ORBITAL ENERGIES
----------------
                 SPIN UP ORBITALS
  NO   OCC          E(Eh)            E(eV)
   0   1.0000    -254.791880     -6933.2395
   1   1.0000     -29.632924      -806.3529
   2   1.0000     -25.573253      -695.8836
   3   1.0000     -25.565706      -695.6782
   4   1.0000     -25.563470      -695.6174
   5   1.0000      -4.035252      -109.8048
   6   1.0000      -4.035190      -109.8031
   7   1.0000      -4.034937      -109.7962
   8   1.0000      -4.034910      -109.7955
   9   1.0000      -4.033518      -109.7576
  10   1.0000      -4.033491      -109.7569
  11   1.0000      -4.033370      -109.7536
  12   1.0000      -4.033326      -109.7524
  13   1.0000      -4.030196      -109.6672
  14   1.0000      -4.029263      -109.6418
  15   1.0000      -4.027222      -109.5863
  16   1.0000      -4.027143      -109.5841
  17   1.0000      -4.025679      -109.5443
  18   1.0000      -4.022516      -109.4582
  19   1.0000      -4.021999      -109.4442
  20   1.0000      -3.413723       -92.8921
  21   1.0000      -2.252001       -61.2801
  22   1.0000      -2.251986       -61.2796
  23   1.0000      -2.251621       -61.2697
  24   1.0000      -2.251508       -61.2666
  25   1.0000      -2.249702       -61.2175
  26   1.0000      -2.249642       -61.2159
  27   1.0000      -2.248783       -61.1925
  28   1.0000      -2.248436       -61.1831
  29   1.0000      -2.248222       -61.1772
  30   1.0000      -2.248082       -61.1734
  31   1.0000      -2.247933       -61.1694
  32   1.0000      -2.247824       -61.1664
  33   1.0000      -2.247456       -61.1564
  34   1.0000      -2.247365       -61.1539
  35   1.0000      -2.245840       -61.1124
  36   1.0000      -2.245814       -61.1117
  37   1.0000      -2.245777       -61.1107
  38   1.0000      -2.245296       -61.0976
  39   1.0000      -2.245214       -61.0954
  40   1.0000      -2.244775       -61.0834
  41   1.0000      -2.244479       -61.0754
  42   1.0000      -2.244401       -61.0732
  43   1.0000      -2.243041       -61.0362
  44   1.0000      -2.243004       -61.0353
  45   1.0000      -2.242632       -61.0251
  46   1.0000      -2.242189       -61.0131
  47   1.0000      -2.242109       -61.0109
  48   1.0000      -2.241787       -61.0021
  49   1.0000      -2.241627       -60.9978
  50   1.0000      -2.241545       -60.9956
  51   1.0000      -2.241012       -60.9810
  52   1.0000      -2.240917       -60.9785
  53   1.0000      -2.240396       -60.9643
  54   1.0000      -2.240280       -60.9611
  55   1.0000      -2.238969       -60.9254
  56   1.0000      -2.238864       -60.9226
  57   1.0000      -2.238789       -60.9206
  58   1.0000      -2.238418       -60.9105
  59   1.0000      -2.237765       -60.8927
  60   1.0000      -2.237215       -60.8777
  61   1.0000      -2.236848       -60.8677
  62   1.0000      -2.236472       -60.8575
  63   1.0000      -2.234553       -60.8053
  64   1.0000      -2.234153       -60.7944
  65   1.0000      -2.233292       -60.7710
  66   1.0000      -2.232728       -60.7556
  67   1.0000      -2.223210       -60.4966
  68   1.0000      -2.218295       -60.3629
  69   1.0000      -0.441089       -12.0026
  70   1.0000      -0.394070       -10.7232
  71   1.0000      -0.393422       -10.7056
  72   1.0000      -0.388424       -10.5695
  73   1.0000      -0.387370       -10.5409
  74   1.0000      -0.381618       -10.3843
  75   1.0000      -0.378865       -10.3094
  76   1.0000      -0.377988       -10.2856
  77   1.0000      -0.377519       -10.2728
  78   1.0000      -0.372795       -10.1443
  79   1.0000      -0.362141        -9.8544
  80   1.0000      -0.362005        -9.8507
  81   1.0000      -0.359738        -9.7890
  82   1.0000      -0.358043        -9.7428
  83   1.0000      -0.354449        -9.6450
  84   1.0000      -0.354245        -9.6395
  85   1.0000      -0.354215        -9.6387
  86   1.0000      -0.353453        -9.6179
  87   1.0000      -0.352996        -9.6055
  88   1.0000      -0.346965        -9.4414
  89   1.0000      -0.346388        -9.4257
  90   1.0000      -0.345489        -9.4012
  91   1.0000      -0.345428        -9.3996
  92   1.0000      -0.342203        -9.3118
  93   1.0000      -0.340755        -9.2724
  94   1.0000      -0.339126        -9.2281
  95   1.0000      -0.336108        -9.1460
  96   1.0000      -0.335321        -9.1246
  97   1.0000      -0.334454        -9.1009
  98   1.0000      -0.333174        -9.0661
  99   1.0000      -0.327935        -8.9236
 100   1.0000      -0.327302        -8.9063
 101   1.0000      -0.325425        -8.8553
 102   1.0000      -0.322768        -8.7830
 103   1.0000      -0.320991        -8.7346
 104   1.0000      -0.318371        -8.6633
 105   1.0000      -0.315854        -8.5948
 106   1.0000      -0.313239        -8.5237
 107   1.0000      -0.313144        -8.5211
 108   1.0000      -0.303438        -8.2570
 109   1.0000      -0.302548        -8.2327
 110   1.0000      -0.301511        -8.2045
 111   1.0000      -0.300763        -8.1842
 112   1.0000      -0.295534        -8.0419
 113   1.0000      -0.295043        -8.0285
 114   1.0000      -0.289313        -7.8726
 115   1.0000      -0.285204        -7.7608
 116   1.0000      -0.282670        -7.6918
 117   1.0000      -0.280634        -7.6364
 118   1.0000      -0.280381        -7.6296
 119   1.0000      -0.278349        -7.5743
 120   1.0000      -0.277784        -7.5589
 121   1.0000      -0.276709        -7.5296
 122   1.0000      -0.273459        -7.4412
 123   1.0000      -0.272286        -7.4093
 124   1.0000      -0.271077        -7.3764
 125   1.0000      -0.271024        -7.3749
 126   1.0000      -0.270462        -7.3597
 127   1.0000      -0.268796        -7.3143
 128   1.0000      -0.268758        -7.3133
 129   1.0000      -0.268406        -7.3037
 130   1.0000      -0.266934        -7.2636
 131   1.0000      -0.266431        -7.2499
 132   1.0000      -0.265488        -7.2243
 133   1.0000      -0.263757        -7.1772
 134   1.0000      -0.263327        -7.1655
 135   1.0000      -0.261770        -7.1231
 136   1.0000      -0.261735        -7.1222
 137   1.0000      -0.260750        -7.0954
 138   1.0000      -0.259678        -7.0662
 139   1.0000      -0.258123        -7.0239
 140   1.0000      -0.256095        -6.9687
 141   1.0000      -0.255615        -6.9556
 142   1.0000      -0.253895        -6.9088
 143   1.0000      -0.253781        -6.9057
 144   1.0000      -0.251600        -6.8464
 145   1.0000      -0.251582        -6.8459
 146   1.0000      -0.248187        -6.7535
 147   1.0000      -0.247752        -6.7417
 148   1.0000      -0.246649        -6.7117
 149   1.0000      -0.244838        -6.6624
 150   1.0000      -0.243878        -6.6363
 151   1.0000      -0.241289        -6.5658
 152   1.0000      -0.230103        -6.2614
 153   1.0000      -0.229954        -6.2574
 154   1.0000      -0.212842        -5.7917
 155   1.0000      -0.209488        -5.7005
 156   1.0000      -0.201156        -5.4737
 157   1.0000      -0.198949        -5.4137
 158   0.0000      -0.150730        -4.1016
 159   0.0000      -0.138739        -3.7753
 160   0.0000      -0.135090        -3.6760
 161   0.0000      -0.131617        -3.5815
 162   0.0000      -0.121224        -3.2987

                 SPIN DOWN ORBITALS
  NO   OCC          E(Eh)            E(eV)
   0   1.0000    -254.791107     -6933.2185
   1   1.0000     -29.568471      -804.5990
   2   1.0000     -25.522020      -694.4895
   3   1.0000     -25.517668      -694.3711
   4   1.0000     -25.516702      -694.3448
   5   1.0000      -4.034386      -109.7812
   6   1.0000      -4.034324      -109.7795
   7   1.0000      -4.034081      -109.7729
   8   1.0000      -4.034058      -109.7723
   9   1.0000      -4.032588      -109.7323
  10   1.0000      -4.032561      -109.7316
  11   1.0000      -4.032442      -109.7283
  12   1.0000      -4.032406      -109.7273
  13   1.0000      -4.029494      -109.6481
  14   1.0000      -4.028619      -109.6243
  15   1.0000      -4.026773      -109.5741
  16   1.0000      -4.026696      -109.5720
  17   1.0000      -4.025616      -109.5426
  18   1.0000      -4.021946      -109.4427
  19   1.0000      -4.021440      -109.4289
  20   1.0000      -3.268747       -88.9471
  21   1.0000      -2.251029       -61.2536
  22   1.0000      -2.250991       -61.2526
  23   1.0000      -2.250572       -61.2412
  24   1.0000      -2.250501       -61.2393
  25   1.0000      -2.248511       -61.1851
  26   1.0000      -2.248486       -61.1844
  27   1.0000      -2.247845       -61.1670
  28   1.0000      -2.247489       -61.1573
  29   1.0000      -2.246995       -61.1439
  30   1.0000      -2.246871       -61.1405
  31   1.0000      -2.246864       -61.1403
  32   1.0000      -2.246449       -61.1290
  33   1.0000      -2.246369       -61.1268
  34   1.0000      -2.246061       -61.1184
  35   1.0000      -2.245125       -61.0930
  36   1.0000      -2.245088       -61.0919
  37   1.0000      -2.244631       -61.0795
  38   1.0000      -2.244448       -61.0745
  39   1.0000      -2.244014       -61.0627
  40   1.0000      -2.243969       -61.0615
  41   1.0000      -2.243796       -61.0568
  42   1.0000      -2.243705       -61.0543
  43   1.0000      -2.242358       -61.0177
  44   1.0000      -2.242285       -61.0157
  45   1.0000      -2.242010       -61.0082
  46   1.0000      -2.241593       -60.9969
  47   1.0000      -2.241325       -60.9896
  48   1.0000      -2.241269       -60.9880
  49   1.0000      -2.240988       -60.9804
  50   1.0000      -2.240936       -60.9790
  51   1.0000      -2.240389       -60.9641
  52   1.0000      -2.240189       -60.9586
  53   1.0000      -2.239928       -60.9515
  54   1.0000      -2.239795       -60.9479
  55   1.0000      -2.238809       -60.9211
  56   1.0000      -2.238678       -60.9175
  57   1.0000      -2.238360       -60.9089
  58   1.0000      -2.237641       -60.8893
  59   1.0000      -2.236731       -60.8645
  60   1.0000      -2.236213       -60.8505
  61   1.0000      -2.235842       -60.8403
  62   1.0000      -2.233982       -60.7897
  63   1.0000      -2.233579       -60.7788
  64   1.0000      -2.232718       -60.7553
  65   1.0000      -2.232183       -60.7408
  66   1.0000      -2.089024       -56.8452
  67   1.0000      -2.083880       -56.7053
  68   1.0000      -2.081512       -56.6408
  69   1.0000      -0.435903       -11.8615
  70   1.0000      -0.392196       -10.6722
  71   1.0000      -0.391441       -10.6516
  72   1.0000      -0.387008       -10.5310
  73   1.0000      -0.377437       -10.2706
  74   1.0000      -0.371785       -10.1168
  75   1.0000      -0.370583       -10.0841
  76   1.0000      -0.367135        -9.9903
  77   1.0000      -0.366343        -9.9687
  78   1.0000      -0.364973        -9.9314
  79   1.0000      -0.360344        -9.8055
  80   1.0000      -0.359365        -9.7788
  81   1.0000      -0.358392        -9.7523
  82   1.0000      -0.354169        -9.6374
  83   1.0000      -0.352722        -9.5980
  84   1.0000      -0.352512        -9.5924
  85   1.0000      -0.352388        -9.5890
  86   1.0000      -0.350772        -9.5450
  87   1.0000      -0.350676        -9.5424
  88   1.0000      -0.345725        -9.4077
  89   1.0000      -0.344286        -9.3685
  90   1.0000      -0.343454        -9.3459
  91   1.0000      -0.342335        -9.3154
  92   1.0000      -0.340577        -9.2676
  93   1.0000      -0.337653        -9.1880
  94   1.0000      -0.334994        -9.1157
  95   1.0000      -0.332900        -9.0587
  96   1.0000      -0.332771        -9.0552
  97   1.0000      -0.329905        -8.9772
  98   1.0000      -0.324990        -8.8434
  99   1.0000      -0.321820        -8.7572
 100   1.0000      -0.320196        -8.7130
 101   1.0000      -0.316445        -8.6109
 102   1.0000      -0.315753        -8.5921
 103   1.0000      -0.314817        -8.5666
 104   1.0000      -0.312035        -8.4909
 105   1.0000      -0.311964        -8.4890
 106   1.0000      -0.305476        -8.3124
 107   1.0000      -0.299357        -8.1459
 108   1.0000      -0.296054        -8.0560
 109   1.0000      -0.294908        -8.0249
 110   1.0000      -0.294209        -8.0058
 111   1.0000      -0.293696        -7.9919
 112   1.0000      -0.289627        -7.8812
 113   1.0000      -0.287570        -7.8252
 114   1.0000      -0.282927        -7.6988
 115   1.0000      -0.279970        -7.6184
 116   1.0000      -0.277895        -7.5619
 117   1.0000      -0.275592        -7.4992
 118   1.0000      -0.273772        -7.4497
 119   1.0000      -0.273245        -7.4354
 120   1.0000      -0.271284        -7.3820
 121   1.0000      -0.271027        -7.3750
 122   1.0000      -0.268643        -7.3101
 123   1.0000      -0.267589        -7.2815
 124   1.0000      -0.267118        -7.2687
 125   1.0000      -0.265613        -7.2277
 126   1.0000      -0.265513        -7.2250
 127   1.0000      -0.265260        -7.2181
 128   1.0000      -0.264733        -7.2038
 129   1.0000      -0.262813        -7.1515
 130   1.0000      -0.262578        -7.1451
 131   1.0000      -0.260241        -7.0815
 132   1.0000      -0.260014        -7.0753
 133   1.0000      -0.258869        -7.0442
 134   1.0000      -0.257358        -7.0031
 135   1.0000      -0.255007        -6.9391
 136   1.0000      -0.254713        -6.9311
 137   1.0000      -0.253832        -6.9071
 138   1.0000      -0.251705        -6.8493
 139   1.0000      -0.250139        -6.8066
 140   1.0000      -0.250091        -6.8053
 141   1.0000      -0.248314        -6.7570
 142   1.0000      -0.246704        -6.7132
 143   1.0000      -0.244477        -6.6526
 144   1.0000      -0.243301        -6.6205
 145   1.0000      -0.242998        -6.6123
 146   1.0000      -0.240506        -6.5445
 147   1.0000      -0.231300        -6.2940
 148   1.0000      -0.229657        -6.2493
 149   1.0000      -0.218167        -5.9366
 150   1.0000      -0.216974        -5.9042
 151   1.0000      -0.213751        -5.8165
 152   1.0000      -0.207093        -5.6353
 153   0.0000      -0.184855        -5.0302
 154   0.0000      -0.183368        -4.9897
 155   0.0000      -0.178529        -4.8580
 156   0.0000      -0.175000        -4.7620
 157   0.0000      -0.167540        -4.5590

MULLIKEN ATOMIC CHARGES AND SPIN POPULATIONS
--------------------------------------------
   0 Au:    0.150848    0.119578
   1 Au:    0.175621    0.079423
   2 Au:    0.134937    0.121811
   3 Au:    0.123581    0.128958
   4 Au:    0.104887    0.120888
   5 Au:    0.250847    0.127058
   6 Au:    0.151503    0.119760
   7 Au:    0.105951    0.120818
   8 Au:    0.136605    0.121805
   9 Au:    0.100668    0.120628
  10 Au:    0.174788    0.079487
  11 Au:    0.370685    0.042560
  12 Au:    0.123588    0.126976
  13 Au:    0.101177    0.120405
  14 Au:    0.240507    0.124672
  15 Fe:   -2.446193    3.325173
Sum of atomic charges         :   -0.0000000

LOEWDIN ATOMIC CHARGES AND SPIN POPULATIONS
-------------------------------------------
   0 Au:    0.038631    0.106370
   1 Au:    0.015836    0.082169
   2 Au:    0.034737    0.107425
   3 Au:    0.010465    0.110537
   4 Au:    0.025029    0.099741
   5 Au:    0.031754    0.115227
   6 Au:    0.038863    0.106446
   7 Au:    0.025402    0.099683
   8 Au:    0.035247    0.107426
   9 Au:    0.022426    0.100047
  10 Au:    0.015696    0.082208
  11 Au:    0.092921    0.049439
  12 Au:    0.011054    0.109860
  13 Au:    0.022562    0.099887
  14 Au:    0.028363    0.114685
  15 Fe:   -0.448985    3.508851

  Mayer bond orders larger than 0.100000
B(  0-Au,  1-Au) :   0.2727 B(  0-Au,  2-Au) :   0.1578 B(  0-Au,  3-Au) :   0.1685
B(  0-Au,  4-Au) :   0.2722 B(  0-Au,  5-Au) :   0.1417 B(  0-Au, 15-Fe) :   0.5344
B(  1-Au,  2-Au) :   0.2755 B(  1-Au,  3-Au) :   0.2780 B(  1-Au, 10-Au) :   0.1923
B(  1-Au, 12-Au) :   0.2774 B(  1-Au, 15-Fe) :   0.2243 B(  2-Au, 12-Au) :   0.1742
B(  2-Au, 13-Au) :   0.2738 B(  2-Au, 14-Au) :   0.1525 B(  2-Au, 15-Fe) :   0.5326
B(  3-Au,  5-Au) :   0.3221 B(  3-Au,  6-Au) :   0.1678 B(  3-Au, 10-Au) :   0.2781
B(  3-Au, 15-Fe) :   0.2772 B(  4-Au,  5-Au) :   0.2224 B(  4-Au,  7-Au) :   0.1161
B(  4-Au, 11-Au) :   0.2799 B(  4-Au, 13-Au) :   0.2293 B(  4-Au, 15-Fe) :   0.4402
B(  5-Au,  6-Au) :   0.1417 B(  5-Au,  7-Au) :   0.2219 B(  5-Au, 15-Fe) :   0.3666
B(  6-Au,  7-Au) :   0.2719 B(  6-Au,  8-Au) :   0.1575 B(  6-Au, 10-Au) :   0.2726
B(  6-Au, 15-Fe) :   0.5352 B(  7-Au,  9-Au) :   0.2292 B(  7-Au, 11-Au) :   0.2794
B(  7-Au, 15-Fe) :   0.4404 B(  8-Au,  9-Au) :   0.2736 B(  8-Au, 10-Au) :   0.2740
B(  8-Au, 12-Au) :   0.1737 B(  8-Au, 14-Au) :   0.1522 B(  8-Au, 15-Fe) :   0.5332
B(  9-Au, 11-Au) :   0.2782 B(  9-Au, 13-Au) :   0.1229 B(  9-Au, 14-Au) :   0.2268
B(  9-Au, 15-Fe) :   0.4357 B( 10-Au, 12-Au) :   0.2786 B( 10-Au, 15-Fe) :   0.2252
B( 11-Au, 13-Au) :   0.2774 B( 11-Au, 15-Fe) :   0.1081 B( 12-Au, 14-Au) :   0.3221
B( 12-Au, 15-Fe) :   0.2631 B( 13-Au, 14-Au) :   0.2265 B( 13-Au, 15-Fe) :   0.4354
B( 14-Au, 15-Fe) :   0.3464

FINAL SINGLE POINT ENERGY     -3300.921481303050

DIPOLE MOMENT
-------------
                                X             Y             Z
Electronic contribution:      2.49794       3.09200      -4.51752
Nuclear contribution   :     -2.65489      -3.29697       4.75415
                        -----------------------------------------
Total Dipole Moment    :     -0.15695      -0.20497       0.23664
                        -----------------------------------------
Magnitude (a.u.)       :      0.35020
Magnitude (Debye)      :      0.89015

Rotational constants in cm-1:     0.001110     0.000915     0.000817
Rotational constants in MHz :    33.273107    27.424153    24.505279

                             ****ORCA TERMINATED NORMALLY****
TOTAL RUN TIME: 0 days 7 hours 42 minutes 48 seconds 993 msec
