                         Program Version 5.0.3 -  RELEASE  -
|  1> !RI-B2PLYP def2-TZVP def2-TZVP/C
|  2> !RIJCOSX VERYSLOWCONV
|  3>
|  4> %scf
|  5>   AutoTRAHIter 200
|  6>   maxiter 400
|  7> end
|  8>
|  9>
| 10> %pal nprocs 6 end
| 11>
| 12> *xyzfile 0 6 pbe.xyz
| 13>
| 14> $new_job
| 15>
| 16> !RI-B2PLYP def2-TZVP def2-TZVP/C
| 17> !RIJCOSX VERYSLOWCONV
| 18>
| 19> %scf
| 20>   AutoTRAHIter 200
| 21>   maxiter 400
| 22> end
| 23>
| 24>
| 25> %pal nprocs 6 end
| 26>
| 27> *xyzfile 0 4 pbe.xyz
| 28>
| 29>
| 30>
| 31>
| 32>
| 33>                          ****END OF INPUT****
 Total Charge           Charge          ....    0
 Multiplicity           Mult            ....    6
 Number of Electrons    NEL             ....  311
MP2 TOTAL ENERGY:    -3297.362533146 Eh
FINAL SINGLE POINT ENERGY     -3297.362533146055

CARTESIAN COORDINATES (ANGSTROEM)
---------------------------------
  Au     6.316233   10.185823    7.949113
  Au     7.711481   10.292990    5.559996
  Au     5.750292    8.366929    5.846178
  Au     9.170108   10.721872    7.886124
  Au     5.658403    8.247870    9.755422
  Au     8.095600    9.533080   10.101182
  Au    10.130058    8.096393    8.679923
  Au     8.351023    6.771940   10.272197
  Au     9.523549    6.297314    6.570055
  Au     7.757853    5.011913    8.203471
  Au    10.208676    8.924089    6.038897
  Au     5.867408    5.501530   10.199434
  Au     8.227617    7.794952    4.446586
  Au     5.100351    6.468882    7.693736
  Au     6.872113    5.751142    5.672451
  Fe     7.579938    7.778206    7.782676

 Multiplicity           Mult            ....    4
 Number of Electrons    NEL             ....  311
 Basis Dimension        Dim             ....  645

ORBITAL ENERGIES
----------------
                 SPIN UP ORBITALS
  NO   OCC          E(Eh)            E(eV)
   0   1.0000    -258.355353     -7030.2066
   1   1.0000     -30.912892      -841.1826
   2   1.0000     -26.632415      -724.7048
   3   1.0000     -26.605466      -723.9715
   4   1.0000     -26.595828      -723.7093
   5   1.0000      -4.406150      -119.8974
   6   1.0000      -4.406069      -119.8952
   7   1.0000      -4.405878      -119.8900
   8   1.0000      -4.405834      -119.8888
   9   1.0000      -4.401634      -119.7746
  10   1.0000      -4.401577      -119.7730
  11   1.0000      -4.401342      -119.7666
  12   1.0000      -4.401269      -119.7646
  13   1.0000      -4.401169      -119.7619
  14   1.0000      -4.400254      -119.7370
  15   1.0000      -4.396774      -119.6423
  16   1.0000      -4.396570      -119.6368
  17   1.0000      -4.396462      -119.6338
  18   1.0000      -4.392289      -119.5203
  19   1.0000      -4.391361      -119.4950
  20   1.0000      -3.927101      -106.8618
  21   1.0000      -2.679702       -72.9184
  22   1.0000      -2.624148       -71.4067
  23   1.0000      -2.604281       -70.8661
  24   1.0000      -2.526232       -68.7423
  25   1.0000      -2.526149       -68.7400
  26   1.0000      -2.525855       -68.7320
  27   1.0000      -2.525794       -68.7304
  28   1.0000      -2.525247       -68.7155
  29   1.0000      -2.525172       -68.7134
  30   1.0000      -2.523618       -68.6711
  31   1.0000      -2.523562       -68.6696
  32   1.0000      -2.522607       -68.6436
  33   1.0000      -2.522317       -68.6357
  34   1.0000      -2.521856       -68.6232
  35   1.0000      -2.521390       -68.6105
  36   1.0000      -2.520907       -68.5974
  37   1.0000      -2.520766       -68.5935
  38   1.0000      -2.520352       -68.5823
  39   1.0000      -2.520220       -68.5787
  40   1.0000      -2.519748       -68.5658
  41   1.0000      -2.519220       -68.5515
  42   1.0000      -2.518879       -68.5422
  43   1.0000      -2.518534       -68.5328
  44   1.0000      -2.518159       -68.5226
  45   1.0000      -2.518088       -68.5207
  46   1.0000      -2.517623       -68.5080
  47   1.0000      -2.517232       -68.4974
  48   1.0000      -2.516923       -68.4890
  49   1.0000      -2.516251       -68.4707
  50   1.0000      -2.515915       -68.4615
  51   1.0000      -2.515419       -68.4480
  52   1.0000      -2.515145       -68.4406
  53   1.0000      -2.515064       -68.4384
  54   1.0000      -2.514125       -68.4128
  55   1.0000      -2.513830       -68.4048
  56   1.0000      -2.513719       -68.4018
  57   1.0000      -2.513504       -68.3959
  58   1.0000      -2.513253       -68.3891
  59   1.0000      -2.513175       -68.3870
  60   1.0000      -2.512749       -68.3754
  61   1.0000      -2.512404       -68.3660
  62   1.0000      -2.511675       -68.3462
  63   1.0000      -2.509352       -68.2829
  64   1.0000      -2.508790       -68.2676
  65   1.0000      -2.508310       -68.2546
  66   1.0000      -2.508088       -68.2485
  67   1.0000      -2.507783       -68.2403
  68   1.0000      -2.507237       -68.2254
  69   1.0000      -0.573512       -15.6060
  70   1.0000      -0.569302       -15.4915
  71   1.0000      -0.564421       -15.3587
  72   1.0000      -0.548375       -14.9220
  73   1.0000      -0.516330       -14.0501
  74   1.0000      -0.513075       -13.9615
  75   1.0000      -0.473246       -12.8777
  76   1.0000      -0.471422       -12.8280
  77   1.0000      -0.470246       -12.7961
  78   1.0000      -0.468887       -12.7591
  79   1.0000      -0.463306       -12.6072
  80   1.0000      -0.463257       -12.6059
  81   1.0000      -0.460061       -12.5189
  82   1.0000      -0.458948       -12.4886
  83   1.0000      -0.457670       -12.4538
  84   1.0000      -0.457013       -12.4360
  85   1.0000      -0.455938       -12.4067
  86   1.0000      -0.455821       -12.4035
  87   1.0000      -0.454767       -12.3748
  88   1.0000      -0.453421       -12.3382
  89   1.0000      -0.452875       -12.3233
  90   1.0000      -0.451142       -12.2762
  91   1.0000      -0.449970       -12.2443
  92   1.0000      -0.449453       -12.2302
  93   1.0000      -0.445163       -12.1135
  94   1.0000      -0.444144       -12.0858
  95   1.0000      -0.444044       -12.0830
  96   1.0000      -0.441256       -12.0072
  97   1.0000      -0.439166       -11.9503
  98   1.0000      -0.436309       -11.8726
  99   1.0000      -0.432967       -11.7816
 100   1.0000      -0.431540       -11.7428
 101   1.0000      -0.430603       -11.7173
 102   1.0000      -0.423060       -11.5120
 103   1.0000      -0.422400       -11.4941
 104   1.0000      -0.421415       -11.4673
 105   1.0000      -0.420633       -11.4460
 106   1.0000      -0.412632       -11.2283
 107   1.0000      -0.411374       -11.1941
 108   1.0000      -0.409651       -11.1472
 109   1.0000      -0.409111       -11.1325
 110   1.0000      -0.404040       -10.9945
 111   1.0000      -0.402183       -10.9440
 112   1.0000      -0.396636       -10.7930
 113   1.0000      -0.393844       -10.7170
 114   1.0000      -0.387903       -10.5554
 115   1.0000      -0.384371       -10.4593
 116   1.0000      -0.379775       -10.3342
 117   1.0000      -0.379437       -10.3250
 118   1.0000      -0.379306       -10.3214
 119   1.0000      -0.377602       -10.2751
 120   1.0000      -0.373769       -10.1708
 121   1.0000      -0.372642       -10.1401
 122   1.0000      -0.370789       -10.0897
 123   1.0000      -0.369020       -10.0415
 124   1.0000      -0.368011       -10.0141
 125   1.0000      -0.365677        -9.9506
 126   1.0000      -0.364837        -9.9277
 127   1.0000      -0.361488        -9.8366
 128   1.0000      -0.361382        -9.8337
 129   1.0000      -0.361080        -9.8255
 130   1.0000      -0.360217        -9.8020
 131   1.0000      -0.359511        -9.7828
 132   1.0000      -0.357971        -9.7409
 133   1.0000      -0.357194        -9.7197
 134   1.0000      -0.355803        -9.6819
 135   1.0000      -0.354924        -9.6580
 136   1.0000      -0.354112        -9.6359
 137   1.0000      -0.351377        -9.5615
 138   1.0000      -0.347988        -9.4692
 139   1.0000      -0.347540        -9.4570
 140   1.0000      -0.346926        -9.4403
 141   1.0000      -0.344556        -9.3759
 142   1.0000      -0.343102        -9.3363
 143   1.0000      -0.341719        -9.2986
 144   1.0000      -0.338949        -9.2233
 145   1.0000      -0.336561        -9.1583
 146   1.0000      -0.332692        -9.0530
 147   1.0000      -0.330345        -8.9891
 148   1.0000      -0.328833        -8.9480
 149   1.0000      -0.326086        -8.8733
 150   1.0000      -0.316170        -8.6034
 151   1.0000      -0.311755        -8.4833
 152   1.0000      -0.304906        -8.2969
 153   1.0000      -0.252884        -6.8813
 154   1.0000      -0.228651        -6.2219
 155   1.0000      -0.226549        -6.1647
 156   1.0000      -0.217879        -5.9288
 157   0.0000      -0.134479        -3.6594
 158   0.0000      -0.087617        -2.3842
 159   0.0000      -0.076546        -2.0829
 160   0.0000      -0.070735        -1.9248
 161   0.0000      -0.065786        -1.7901

                 SPIN DOWN ORBITALS
  NO   OCC          E(Eh)            E(eV)
   0   1.0000    -258.353458     -7030.1550
   1   1.0000     -30.819516      -838.6417
   2   1.0000     -26.531744      -721.9655
   3   1.0000     -26.524673      -721.7730
   4   1.0000     -26.521483      -721.6862
   5   1.0000      -4.405761      -119.8869
   6   1.0000      -4.405638      -119.8835
   7   1.0000      -4.405424      -119.8777
   8   1.0000      -4.405420      -119.8776
   9   1.0000      -4.402305      -119.7928
  10   1.0000      -4.401388      -119.7679
  11   1.0000      -4.401130      -119.7608
  12   1.0000      -4.401116      -119.7604
  13   1.0000      -4.400869      -119.7537
  14   1.0000      -4.400817      -119.7523
  15   1.0000      -4.397043      -119.6496
  16   1.0000      -4.397027      -119.6492
  17   1.0000      -4.396919      -119.6462
  18   1.0000      -4.393197      -119.5450
  19   1.0000      -4.392234      -119.5188
  20   1.0000      -3.680785      -100.1593
  21   1.0000      -2.525488       -68.7220
  22   1.0000      -2.525408       -68.7199
  23   1.0000      -2.524973       -68.7080
  24   1.0000      -2.524914       -68.7064
  25   1.0000      -2.524428       -68.6932
  26   1.0000      -2.524359       -68.6913
  27   1.0000      -2.522941       -68.6527
  28   1.0000      -2.522675       -68.6455
  29   1.0000      -2.522637       -68.6444
  30   1.0000      -2.522103       -68.6299
  31   1.0000      -2.521949       -68.6257
  32   1.0000      -2.521602       -68.6163
  33   1.0000      -2.520564       -68.5880
  34   1.0000      -2.520440       -68.5847
  35   1.0000      -2.520046       -68.5739
  36   1.0000      -2.520025       -68.5734
  37   1.0000      -2.519239       -68.5520
  38   1.0000      -2.518867       -68.5419
  39   1.0000      -2.518591       -68.5343
  40   1.0000      -2.518461       -68.5308
  41   1.0000      -2.518264       -68.5254
  42   1.0000      -2.517869       -68.5147
  43   1.0000      -2.517391       -68.5017
  44   1.0000      -2.517027       -68.4918
  45   1.0000      -2.516678       -68.4823
  46   1.0000      -2.516154       -68.4680
  47   1.0000      -2.516040       -68.4649
  48   1.0000      -2.515598       -68.4529
  49   1.0000      -2.515540       -68.4513
  50   1.0000      -2.515140       -68.4404
  51   1.0000      -2.514701       -68.4285
  52   1.0000      -2.514191       -68.4146
  53   1.0000      -2.514162       -68.4138
  54   1.0000      -2.513995       -68.4093
  55   1.0000      -2.513616       -68.3990
  56   1.0000      -2.513345       -68.3916
  57   1.0000      -2.512903       -68.3796
  58   1.0000      -2.512721       -68.3746
  59   1.0000      -2.511675       -68.3461
  60   1.0000      -2.510470       -68.3134
  61   1.0000      -2.509620       -68.2902
  62   1.0000      -2.509015       -68.2738
  63   1.0000      -2.508708       -68.2654
  64   1.0000      -2.508162       -68.2506
  65   1.0000      -2.507888       -68.2431
  66   1.0000      -2.361251       -64.2529
  67   1.0000      -2.356797       -64.1317
  68   1.0000      -2.346407       -63.8490
  69   1.0000      -0.515170       -14.0185
  70   1.0000      -0.477083       -12.9821
  71   1.0000      -0.474784       -12.9195
  72   1.0000      -0.472739       -12.8639
  73   1.0000      -0.471778       -12.8377
  74   1.0000      -0.471348       -12.8260
  75   1.0000      -0.469547       -12.7770
  76   1.0000      -0.466207       -12.6861
  77   1.0000      -0.464315       -12.6347
  78   1.0000      -0.463670       -12.6171
  79   1.0000      -0.459999       -12.5172
  80   1.0000      -0.459447       -12.5022
  81   1.0000      -0.459015       -12.4904
  82   1.0000      -0.458083       -12.4651
  83   1.0000      -0.457323       -12.4444
  84   1.0000      -0.455136       -12.3849
  85   1.0000      -0.455120       -12.3844
  86   1.0000      -0.454363       -12.3638
  87   1.0000      -0.454285       -12.3617
  88   1.0000      -0.450140       -12.2489
  89   1.0000      -0.447651       -12.1812
  90   1.0000      -0.446682       -12.1548
  91   1.0000      -0.445771       -12.1300
  92   1.0000      -0.442498       -12.0410
  93   1.0000      -0.439886       -11.9699
  94   1.0000      -0.437683       -11.9100
  95   1.0000      -0.433024       -11.7832
  96   1.0000      -0.431480       -11.7412
  97   1.0000      -0.427583       -11.6351
  98   1.0000      -0.424614       -11.5543
  99   1.0000      -0.423791       -11.5319
 100   1.0000      -0.421509       -11.4698
 101   1.0000      -0.415289       -11.3006
 102   1.0000      -0.414357       -11.2752
 103   1.0000      -0.413213       -11.2441
 104   1.0000      -0.412783       -11.2324
 105   1.0000      -0.409927       -11.1547
 106   1.0000      -0.405136       -11.0243
 107   1.0000      -0.399843       -10.8803
 108   1.0000      -0.394010       -10.7216
 109   1.0000      -0.391383       -10.6501
 110   1.0000      -0.388994       -10.5851
 111   1.0000      -0.387753       -10.5513
 112   1.0000      -0.385311       -10.4848
 113   1.0000      -0.384153       -10.4533
 114   1.0000      -0.380462       -10.3529
 115   1.0000      -0.379606       -10.3296
 116   1.0000      -0.372587       -10.1386
 117   1.0000      -0.371460       -10.1079
 118   1.0000      -0.369742       -10.0612
 119   1.0000      -0.367591       -10.0027
 120   1.0000      -0.366929        -9.9846
 121   1.0000      -0.366643        -9.9769
 122   1.0000      -0.363857        -9.9011
 123   1.0000      -0.362222        -9.8566
 124   1.0000      -0.361282        -9.8310
 125   1.0000      -0.360977        -9.8227
 126   1.0000      -0.360500        -9.8097
 127   1.0000      -0.359847        -9.7919
 128   1.0000      -0.358080        -9.7439
 129   1.0000      -0.356404        -9.6983
 130   1.0000      -0.356312        -9.6957
 131   1.0000      -0.355120        -9.6633
 132   1.0000      -0.354289        -9.6407
 133   1.0000      -0.351445        -9.5633
 134   1.0000      -0.348442        -9.4816
 135   1.0000      -0.348432        -9.4813
 136   1.0000      -0.348301        -9.4777
 137   1.0000      -0.345423        -9.3994
 138   1.0000      -0.344979        -9.3874
 139   1.0000      -0.342670        -9.3245
 140   1.0000      -0.340442        -9.2639
 141   1.0000      -0.336493        -9.1564
 142   1.0000      -0.333904        -9.0860
 143   1.0000      -0.331856        -9.0303
 144   1.0000      -0.328622        -8.9423
 145   1.0000      -0.326927        -8.8961
 146   1.0000      -0.322165        -8.7666
 147   1.0000      -0.314038        -8.5454
 148   1.0000      -0.311231        -8.4690
 149   1.0000      -0.257831        -7.0160
 150   1.0000      -0.237484        -6.4623
 151   1.0000      -0.234665        -6.3856
 152   1.0000      -0.228628        -6.2213
 153   1.0000      -0.215399        -5.8613
 154   0.0000      -0.088538        -2.4093
 155   0.0000      -0.073113        -1.9895
 156   0.0000      -0.069811        -1.8997
 157   0.0000      -0.067531        -1.8376
 158   0.0000      -0.054747        -1.4897

MULLIKEN ATOMIC CHARGES AND SPIN POPULATIONS
--------------------------------------------
   0 Au:    0.106913   -0.036804
   1 Au:    0.139787    0.044857
   2 Au:    0.094311   -0.038845
   3 Au:    0.099429   -0.113158
   4 Au:    0.041913    0.039434
   5 Au:    0.298962   -0.226189
   6 Au:    0.111653   -0.042260
   7 Au:    0.043352    0.039360
   8 Au:    0.091859   -0.033166
   9 Au:    0.039602    0.039016
  10 Au:    0.138572    0.044955
  11 Au:    0.350780    0.017339
  12 Au:    0.096546   -0.102541
  13 Au:    0.039018    0.039194
  14 Au:    0.291903   -0.228362
  15 Fe:   -1.984602    3.557171
Sum of atomic charges         :   -0.0000000

LOEWDIN ATOMIC CHARGES AND SPIN POPULATIONS
-------------------------------------------
   0 Au:    0.022856   -0.058363
   1 Au:    0.004681   -0.004445
   2 Au:    0.017881   -0.056537
   3 Au:    0.004355   -0.076308
   4 Au:   -0.003408   -0.003271
   5 Au:    0.028302   -0.120843
   6 Au:    0.023278   -0.059175
   7 Au:   -0.003010   -0.003222
   8 Au:    0.018363   -0.055554
   9 Au:   -0.005880   -0.003469
  10 Au:    0.004439   -0.004426
  11 Au:    0.108299    0.008595
  12 Au:    0.004664   -0.070100
  13 Au:   -0.005854   -0.003528
  14 Au:    0.026565   -0.119386
  15 Fe:   -0.245533    3.630031

  Mayer bond orders larger than 0.100000
B(  0-Au,  1-Au) :   0.2665 B(  0-Au,  2-Au) :   0.1074 B(  0-Au,  3-Au) :   0.1719
B(  0-Au,  4-Au) :   0.2681 B(  0-Au,  5-Au) :   0.1481 B(  0-Au, 15-Fe) :   0.4624
B(  1-Au,  2-Au) :   0.2681 B(  1-Au,  3-Au) :   0.2477 B(  1-Au, 10-Au) :   0.1431
B(  1-Au, 12-Au) :   0.2477 B(  1-Au, 15-Fe) :   0.1977 B(  2-Au, 12-Au) :   0.1785
B(  2-Au, 13-Au) :   0.2707 B(  2-Au, 14-Au) :   0.1616 B(  2-Au, 15-Fe) :   0.4576
B(  3-Au,  5-Au) :   0.2446 B(  3-Au,  6-Au) :   0.1738 B(  3-Au, 10-Au) :   0.2480
B(  3-Au, 15-Fe) :   0.2074 B(  4-Au,  5-Au) :   0.1972 B(  4-Au, 11-Au) :   0.2466
B(  4-Au, 13-Au) :   0.2116 B(  4-Au, 15-Fe) :   0.3880 B(  5-Au,  6-Au) :   0.1520
B(  5-Au,  7-Au) :   0.1994 B(  5-Au, 15-Fe) :   0.2676 B(  6-Au,  7-Au) :   0.2665
B(  6-Au,  8-Au) :   0.1071 B(  6-Au, 10-Au) :   0.2658 B(  6-Au, 15-Fe) :   0.4604
B(  7-Au,  9-Au) :   0.2118 B(  7-Au, 11-Au) :   0.2461 B(  7-Au, 15-Fe) :   0.3872
B(  8-Au,  9-Au) :   0.2726 B(  8-Au, 10-Au) :   0.2673 B(  8-Au, 12-Au) :   0.1754
B(  8-Au, 14-Au) :   0.1570 B(  8-Au, 15-Fe) :   0.4611 B(  9-Au, 11-Au) :   0.2449
B(  9-Au, 13-Au) :   0.1021 B(  9-Au, 14-Au) :   0.1987 B(  9-Au, 15-Fe) :   0.3843
B( 10-Au, 12-Au) :   0.2487 B( 10-Au, 15-Fe) :   0.1985 B( 11-Au, 13-Au) :   0.2450
B( 11-Au, 15-Fe) :   0.1032 B( 12-Au, 14-Au) :   0.2468 B( 12-Au, 15-Fe) :   0.1946
B( 13-Au, 14-Au) :   0.2012 B( 13-Au, 15-Fe) :   0.3831 B( 14-Au, 15-Fe) :   0.2519

MP2 TOTAL ENERGY:    -3297.357796875 Eh
FINAL SINGLE POINT ENERGY     -3297.357796874811

DIPOLE MOMENT
-------------
                                X             Y             Z
Electronic contribution:      2.50283       3.09884      -4.51452
Nuclear contribution   :     -2.65489      -3.29697       4.75415
                        -----------------------------------------
Total Dipole Moment    :     -0.15207      -0.19813       0.23963
                        -----------------------------------------
Magnitude (a.u.)       :      0.34612
Magnitude (Debye)      :      0.87978

Rotational constants in cm-1:     0.001110     0.000915     0.000817
Rotational constants in MHz :    33.273107    27.424153    24.505279

                             ****ORCA TERMINATED NORMALLY****
TOTAL RUN TIME: 0 days 0 hours 34 minutes 9 seconds 440 msec
