                         Program Version 5.0.3 -  RELEASE  -
|  1> !PBE def2-TZVP VERYSLOWCONV
|  2>
|  3> %scf
|  4>   AutoTRAHIter 200
|  5>   maxiter 400
|  6> end
|  7>
|  8>
|  9> %pal nprocs 6 end
| 10>
| 11> *xyzfile 0 6 pbe.xyz
| 12>
| 13> $new_job
| 14>
| 15> !PBE def2-TZVP VERYSLOWCONV
| 16>
| 17> %scf
| 18>   AutoTRAHIter 200
| 19>   maxiter 400
| 20> end
| 21>
| 22>
| 23> %pal nprocs 6 end
| 24>
| 25> *xyzfile 0 4 pbe.xyz
| 26>
| 27>
| 28>
| 29>
| 30>
| 31>                          ****END OF INPUT****
 Total Charge           Charge          ....    0
 Multiplicity           Mult            ....    6
 Number of Electrons    NEL             ....  311
FINAL SINGLE POINT ENERGY     -3300.921480726636

CARTESIAN COORDINATES (ANGSTROEM)
---------------------------------
  Au     6.316233   10.185823    7.949113
  Au     7.711481   10.292990    5.559996
  Au     5.750292    8.366929    5.846178
  Au     9.170108   10.721872    7.886124
  Au     5.658403    8.247870    9.755422
  Au     8.095600    9.533080   10.101182
  Au    10.130058    8.096393    8.679923
  Au     8.351023    6.771940   10.272197
  Au     9.523549    6.297314    6.570055
  Au     7.757853    5.011913    8.203471
  Au    10.208676    8.924089    6.038897
  Au     5.867408    5.501530   10.199434
  Au     8.227617    7.794952    4.446586
  Au     5.100351    6.468882    7.693736
  Au     6.872113    5.751142    5.672451
  Fe     7.579938    7.778206    7.782676

 Multiplicity           Mult            ....    4
 Number of Electrons    NEL             ....  311
 Basis Dimension        Dim             ....  645

ORBITAL ENERGIES
----------------
                 SPIN UP ORBITALS
  NO   OCC          E(Eh)            E(eV)
   0   1.0000    -254.752649     -6932.1720
   1   1.0000     -29.586116      -805.0792
   2   1.0000     -25.533269      -694.7956
   3   1.0000     -25.522382      -694.4993
   4   1.0000     -25.509073      -694.1372
   5   1.0000      -4.036659      -109.8431
   6   1.0000      -4.036626      -109.8422
   7   1.0000      -4.036529      -109.8395
   8   1.0000      -4.036528      -109.8395
   9   1.0000      -4.033372      -109.7536
  10   1.0000      -4.032512      -109.7302
  11   1.0000      -4.029835      -109.6574
  12   1.0000      -4.029810      -109.6567
  13   1.0000      -4.029687      -109.6534
  14   1.0000      -4.029652      -109.6524
  15   1.0000      -4.025628      -109.5429
  16   1.0000      -4.025544      -109.5406
  17   1.0000      -4.024267      -109.5059
  18   1.0000      -4.023492      -109.4848
  19   1.0000      -4.023368      -109.4814
  20   1.0000      -3.367679       -91.6392
  21   1.0000      -2.252175       -61.2848
  22   1.0000      -2.252102       -61.2828
  23   1.0000      -2.251772       -61.2738
  24   1.0000      -2.251752       -61.2733
  25   1.0000      -2.250721       -61.2452
  26   1.0000      -2.250660       -61.2436
  27   1.0000      -2.249165       -61.2029
  28   1.0000      -2.249088       -61.2008
  29   1.0000      -2.248891       -61.1954
  30   1.0000      -2.248347       -61.1806
  31   1.0000      -2.248175       -61.1760
  32   1.0000      -2.247910       -61.1687
  33   1.0000      -2.247030       -61.1448
  34   1.0000      -2.246924       -61.1419
  35   1.0000      -2.246340       -61.1260
  36   1.0000      -2.245826       -61.1120
  37   1.0000      -2.245485       -61.1028
  38   1.0000      -2.245305       -61.0979
  39   1.0000      -2.244785       -61.0837
  40   1.0000      -2.244259       -61.0694
  41   1.0000      -2.244245       -61.0690
  42   1.0000      -2.243755       -61.0557
  43   1.0000      -2.243174       -61.0399
  44   1.0000      -2.243045       -61.0364
  45   1.0000      -2.241824       -61.0031
  46   1.0000      -2.240900       -60.9780
  47   1.0000      -2.240819       -60.9758
  48   1.0000      -2.240520       -60.9677
  49   1.0000      -2.240373       -60.9637
  50   1.0000      -2.240364       -60.9634
  51   1.0000      -2.239556       -60.9414
  52   1.0000      -2.239449       -60.9385
  53   1.0000      -2.239382       -60.9367
  54   1.0000      -2.239150       -60.9304
  55   1.0000      -2.238869       -60.9227
  56   1.0000      -2.237781       -60.8931
  57   1.0000      -2.236721       -60.8643
  58   1.0000      -2.236445       -60.8568
  59   1.0000      -2.236050       -60.8460
  60   1.0000      -2.235746       -60.8378
  61   1.0000      -2.235710       -60.8368
  62   1.0000      -2.235373       -60.8276
  63   1.0000      -2.234416       -60.8015
  64   1.0000      -2.233918       -60.7880
  65   1.0000      -2.233654       -60.7808
  66   1.0000      -2.204625       -59.9909
  67   1.0000      -2.184177       -59.4345
  68   1.0000      -2.156161       -58.6721
  69   1.0000      -0.436690       -11.8829
  70   1.0000      -0.392232       -10.6732
  71   1.0000      -0.389567       -10.6006
  72   1.0000      -0.387586       -10.5467
  73   1.0000      -0.378188       -10.2910
  74   1.0000      -0.378012       -10.2862
  75   1.0000      -0.375609       -10.2208
  76   1.0000      -0.371019       -10.0960
  77   1.0000      -0.370388       -10.0788
  78   1.0000      -0.367837       -10.0094
  79   1.0000      -0.361193        -9.8285
  80   1.0000      -0.360173        -9.8008
  81   1.0000      -0.359246        -9.7756
  82   1.0000      -0.357827        -9.7370
  83   1.0000      -0.354758        -9.6535
  84   1.0000      -0.353509        -9.6195
  85   1.0000      -0.352990        -9.6053
  86   1.0000      -0.352546        -9.5933
  87   1.0000      -0.351648        -9.5688
  88   1.0000      -0.346212        -9.4209
  89   1.0000      -0.345216        -9.3938
  90   1.0000      -0.344783        -9.3820
  91   1.0000      -0.344355        -9.3704
  92   1.0000      -0.339891        -9.2489
  93   1.0000      -0.338181        -9.2024
  94   1.0000      -0.337436        -9.1821
  95   1.0000      -0.333560        -9.0766
  96   1.0000      -0.333289        -9.0693
  97   1.0000      -0.332500        -9.0478
  98   1.0000      -0.329386        -8.9630
  99   1.0000      -0.326481        -8.8840
 100   1.0000      -0.323660        -8.8072
 101   1.0000      -0.321891        -8.7591
 102   1.0000      -0.317936        -8.6515
 103   1.0000      -0.316375        -8.6090
 104   1.0000      -0.313300        -8.5253
 105   1.0000      -0.311698        -8.4817
 106   1.0000      -0.310823        -8.4579
 107   1.0000      -0.301542        -8.2054
 108   1.0000      -0.301004        -8.1907
 109   1.0000      -0.299093        -8.1387
 110   1.0000      -0.298421        -8.1205
 111   1.0000      -0.296242        -8.0612
 112   1.0000      -0.295741        -8.0475
 113   1.0000      -0.290863        -7.9148
 114   1.0000      -0.283838        -7.7236
 115   1.0000      -0.283193        -7.7061
 116   1.0000      -0.280569        -7.6347
 117   1.0000      -0.275480        -7.4962
 118   1.0000      -0.275119        -7.4864
 119   1.0000      -0.274169        -7.4605
 120   1.0000      -0.274094        -7.4585
 121   1.0000      -0.270891        -7.3713
 122   1.0000      -0.270884        -7.3711
 123   1.0000      -0.269752        -7.3403
 124   1.0000      -0.268034        -7.2936
 125   1.0000      -0.267512        -7.2794
 126   1.0000      -0.266974        -7.2647
 127   1.0000      -0.266374        -7.2484
 128   1.0000      -0.265924        -7.2362
 129   1.0000      -0.265735        -7.2310
 130   1.0000      -0.264804        -7.2057
 131   1.0000      -0.263287        -7.1644
 132   1.0000      -0.262817        -7.1516
 133   1.0000      -0.260331        -7.0840
 134   1.0000      -0.260098        -7.0776
 135   1.0000      -0.259307        -7.0561
 136   1.0000      -0.257493        -7.0067
 137   1.0000      -0.256995        -6.9932
 138   1.0000      -0.255821        -6.9612
 139   1.0000      -0.255207        -6.9445
 140   1.0000      -0.253086        -6.8868
 141   1.0000      -0.251808        -6.8521
 142   1.0000      -0.250600        -6.8192
 143   1.0000      -0.250429        -6.8145
 144   1.0000      -0.248746        -6.7687
 145   1.0000      -0.247303        -6.7295
 146   1.0000      -0.245882        -6.6908
 147   1.0000      -0.245476        -6.6798
 148   1.0000      -0.244712        -6.6590
 149   1.0000      -0.243598        -6.6287
 150   1.0000      -0.241169        -6.5625
 151   1.0000      -0.240848        -6.5538
 152   1.0000      -0.229880        -6.2554
 153   1.0000      -0.221472        -6.0265
 154   1.0000      -0.209846        -5.7102
 155   1.0000      -0.205728        -5.5981
 156   1.0000      -0.199464        -5.4277
 157   0.0000      -0.197790        -5.3821
 158   0.0000      -0.147772        -4.0211
 159   0.0000      -0.134663        -3.6644
 160   0.0000      -0.132846        -3.6149
 161   0.0000      -0.129831        -3.5329

                 SPIN DOWN ORBITALS
  NO   OCC          E(Eh)            E(eV)
   0   1.0000    -254.752001     -6932.1544
   1   1.0000     -29.527469      -803.4833
   2   1.0000     -25.484420      -693.4663
   3   1.0000     -25.477771      -693.2854
   4   1.0000     -25.469759      -693.0674
   5   1.0000      -4.036172      -109.8298
   6   1.0000      -4.036149      -109.8292
   7   1.0000      -4.036060      -109.8268
   8   1.0000      -4.036044      -109.8263
   9   1.0000      -4.033566      -109.7589
  10   1.0000      -4.032731      -109.7362
  11   1.0000      -4.029587      -109.6506
  12   1.0000      -4.029562      -109.6500
  13   1.0000      -4.029441      -109.6467
  14   1.0000      -4.029407      -109.6457
  15   1.0000      -4.026110      -109.5560
  16   1.0000      -4.026026      -109.5537
  17   1.0000      -4.024751      -109.5190
  18   1.0000      -4.023957      -109.4974
  19   1.0000      -4.023767      -109.4923
  20   1.0000      -3.233718       -87.9939
  21   1.0000      -2.251617       -61.2696
  22   1.0000      -2.251549       -61.2678
  23   1.0000      -2.251153       -61.2570
  24   1.0000      -2.251115       -61.2560
  25   1.0000      -2.250014       -61.2260
  26   1.0000      -2.249995       -61.2255
  27   1.0000      -2.249244       -61.2050
  28   1.0000      -2.248626       -61.1882
  29   1.0000      -2.248369       -61.1812
  30   1.0000      -2.248359       -61.1809
  31   1.0000      -2.247948       -61.1698
  32   1.0000      -2.247795       -61.1656
  33   1.0000      -2.246920       -61.1418
  34   1.0000      -2.246780       -61.1380
  35   1.0000      -2.246228       -61.1230
  36   1.0000      -2.245842       -61.1125
  37   1.0000      -2.245393       -61.1002
  38   1.0000      -2.245282       -61.0972
  39   1.0000      -2.244705       -61.0815
  40   1.0000      -2.244296       -61.0704
  41   1.0000      -2.244170       -61.0670
  42   1.0000      -2.243776       -61.0562
  43   1.0000      -2.242818       -61.0302
  44   1.0000      -2.242707       -61.0272
  45   1.0000      -2.242400       -61.0188
  46   1.0000      -2.241596       -60.9969
  47   1.0000      -2.240956       -60.9795
  48   1.0000      -2.240264       -60.9607
  49   1.0000      -2.240226       -60.9596
  50   1.0000      -2.240171       -60.9581
  51   1.0000      -2.239922       -60.9514
  52   1.0000      -2.239910       -60.9510
  53   1.0000      -2.239494       -60.9397
  54   1.0000      -2.239213       -60.9321
  55   1.0000      -2.238675       -60.9174
  56   1.0000      -2.238538       -60.9137
  57   1.0000      -2.237079       -60.8740
  58   1.0000      -2.236775       -60.8657
  59   1.0000      -2.236231       -60.8509
  60   1.0000      -2.236108       -60.8476
  61   1.0000      -2.236077       -60.8467
  62   1.0000      -2.235936       -60.8429
  63   1.0000      -2.234691       -60.8090
  64   1.0000      -2.234152       -60.7944
  65   1.0000      -2.233912       -60.7878
  66   1.0000      -2.059599       -56.0445
  67   1.0000      -2.052903       -55.8623
  68   1.0000      -2.038999       -55.4840
  69   1.0000      -0.433101       -11.7853
  70   1.0000      -0.391943       -10.6653
  71   1.0000      -0.389547       -10.6001
  72   1.0000      -0.387750       -10.5512
  73   1.0000      -0.375922       -10.2294
  74   1.0000      -0.372296       -10.1307
  75   1.0000      -0.369952       -10.0669
  76   1.0000      -0.366856        -9.9827
  77   1.0000      -0.366628        -9.9764
  78   1.0000      -0.365858        -9.9555
  79   1.0000      -0.360475        -9.8090
  80   1.0000      -0.359498        -9.7825
  81   1.0000      -0.359312        -9.7774
  82   1.0000      -0.355482        -9.6732
  83   1.0000      -0.354892        -9.6571
  84   1.0000      -0.353665        -9.6237
  85   1.0000      -0.352803        -9.6003
  86   1.0000      -0.352030        -9.5792
  87   1.0000      -0.351309        -9.5596
  88   1.0000      -0.345322        -9.3967
  89   1.0000      -0.345141        -9.3918
  90   1.0000      -0.345044        -9.3891
  91   1.0000      -0.344358        -9.3705
  92   1.0000      -0.340001        -9.2519
  93   1.0000      -0.338203        -9.2030
  94   1.0000      -0.335426        -9.1274
  95   1.0000      -0.333571        -9.0769
  96   1.0000      -0.331906        -9.0316
  97   1.0000      -0.330757        -9.0004
  98   1.0000      -0.324746        -8.8368
  99   1.0000      -0.324408        -8.8276
 100   1.0000      -0.321142        -8.7387
 101   1.0000      -0.316264        -8.6060
 102   1.0000      -0.315263        -8.5787
 103   1.0000      -0.314643        -8.5619
 104   1.0000      -0.313221        -8.5232
 105   1.0000      -0.311269        -8.4701
 106   1.0000      -0.307791        -8.3754
 107   1.0000      -0.301254        -8.1975
 108   1.0000      -0.296582        -8.0704
 109   1.0000      -0.295396        -8.0381
 110   1.0000      -0.294251        -8.0070
 111   1.0000      -0.292409        -7.9568
 112   1.0000      -0.287951        -7.8355
 113   1.0000      -0.287003        -7.8097
 114   1.0000      -0.283009        -7.7011
 115   1.0000      -0.282057        -7.6752
 116   1.0000      -0.279849        -7.6151
 117   1.0000      -0.274870        -7.4796
 118   1.0000      -0.273781        -7.4500
 119   1.0000      -0.273520        -7.4429
 120   1.0000      -0.272679        -7.4200
 121   1.0000      -0.271081        -7.3765
 122   1.0000      -0.269834        -7.3426
 123   1.0000      -0.269601        -7.3362
 124   1.0000      -0.268759        -7.3133
 125   1.0000      -0.266452        -7.2505
 126   1.0000      -0.266100        -7.2409
 127   1.0000      -0.265098        -7.2137
 128   1.0000      -0.264132        -7.1874
 129   1.0000      -0.263465        -7.1692
 130   1.0000      -0.263031        -7.1574
 131   1.0000      -0.262646        -7.1469
 132   1.0000      -0.262039        -7.1304
 133   1.0000      -0.259933        -7.0731
 134   1.0000      -0.257165        -6.9978
 135   1.0000      -0.255661        -6.9569
 136   1.0000      -0.254824        -6.9341
 137   1.0000      -0.254621        -6.9286
 138   1.0000      -0.252877        -6.8811
 139   1.0000      -0.250689        -6.8216
 140   1.0000      -0.250663        -6.8209
 141   1.0000      -0.248295        -6.7565
 142   1.0000      -0.247871        -6.7449
 143   1.0000      -0.246293        -6.7020
 144   1.0000      -0.245139        -6.6706
 145   1.0000      -0.244424        -6.6511
 146   1.0000      -0.242378        -6.5954
 147   1.0000      -0.231689        -6.3046
 148   1.0000      -0.230507        -6.2724
 149   1.0000      -0.215568        -5.8659
 150   1.0000      -0.213351        -5.8056
 151   1.0000      -0.213099        -5.7987
 152   1.0000      -0.208022        -5.6606
 153   1.0000      -0.173646        -4.7251
 154   0.0000      -0.164268        -4.4699
 155   0.0000      -0.157346        -4.2816
 156   0.0000      -0.146854        -3.9961
 157   0.0000      -0.146603        -3.9893
 158   0.0000      -0.140142        -3.8135

MULLIKEN ATOMIC CHARGES AND SPIN POPULATIONS
--------------------------------------------
   0 Au:    0.144547    0.022105
   1 Au:    0.159341    0.008149
   2 Au:    0.128230    0.025730
   3 Au:    0.131643   -0.062461
   4 Au:    0.083449    0.052523
   5 Au:    0.307616   -0.125529
   6 Au:    0.145504    0.021881
   7 Au:    0.084568    0.052461
   8 Au:    0.129740    0.026027
   9 Au:    0.079727    0.053357
  10 Au:    0.158510    0.008241
  11 Au:    0.359675   -0.053431
  12 Au:    0.129215   -0.053413
  13 Au:    0.080268    0.053227
  14 Au:    0.298470   -0.127865
  15 Fe:   -2.420501    3.098997
Sum of atomic charges         :   -0.0000000

LOEWDIN ATOMIC CHARGES AND SPIN POPULATIONS
-------------------------------------------
   0 Au:    0.050654   -0.005343
   1 Au:    0.009424   -0.014253
   2 Au:    0.045950   -0.002330
   3 Au:    0.020317   -0.042040
   4 Au:    0.019829    0.013941
   5 Au:    0.054477   -0.056480
   6 Au:    0.050904   -0.005262
   7 Au:    0.020175    0.013951
   8 Au:    0.046484   -0.002313
   9 Au:    0.017620    0.014948
  10 Au:    0.009299   -0.014280
  11 Au:    0.085595   -0.032481
  12 Au:    0.019305   -0.036518
  13 Au:    0.017801    0.014852
  14 Au:    0.051067   -0.055724
  15 Fe:   -0.518899    3.209332

  Mayer bond orders larger than 0.100000
B(  0-Au,  1-Au) :   0.2823 B(  0-Au,  2-Au) :   0.1315 B(  0-Au,  3-Au) :   0.2015
B(  0-Au,  4-Au) :   0.2799 B(  0-Au,  5-Au) :   0.1749 B(  0-Au, 15-Fe) :   0.4770
B(  1-Au,  2-Au) :   0.2850 B(  1-Au,  3-Au) :   0.2839 B(  1-Au, 10-Au) :   0.1826
B(  1-Au, 12-Au) :   0.2838 B(  1-Au, 15-Fe) :   0.1591 B(  2-Au, 12-Au) :   0.2059
B(  2-Au, 13-Au) :   0.2823 B(  2-Au, 14-Au) :   0.1870 B(  2-Au, 15-Fe) :   0.4745
B(  3-Au,  5-Au) :   0.2804 B(  3-Au,  6-Au) :   0.2010 B(  3-Au, 10-Au) :   0.2841
B(  3-Au, 15-Fe) :   0.2253 B(  4-Au,  5-Au) :   0.2341 B(  4-Au,  7-Au) :   0.1163
B(  4-Au, 11-Au) :   0.2806 B(  4-Au, 13-Au) :   0.2329 B(  4-Au, 15-Fe) :   0.3801
B(  5-Au,  6-Au) :   0.1753 B(  5-Au,  7-Au) :   0.2337 B(  5-Au, 15-Fe) :   0.3263
B(  6-Au,  7-Au) :   0.2795 B(  6-Au,  8-Au) :   0.1312 B(  6-Au, 10-Au) :   0.2821
B(  6-Au, 15-Fe) :   0.4775 B(  7-Au,  9-Au) :   0.2329 B(  7-Au, 11-Au) :   0.2800
B(  7-Au, 15-Fe) :   0.3803 B(  8-Au,  9-Au) :   0.2823 B(  8-Au, 10-Au) :   0.2835
B(  8-Au, 12-Au) :   0.2053 B(  8-Au, 14-Au) :   0.1863 B(  8-Au, 15-Fe) :   0.4753
B(  9-Au, 11-Au) :   0.2786 B(  9-Au, 13-Au) :   0.1228 B(  9-Au, 14-Au) :   0.2358
B(  9-Au, 15-Fe) :   0.3775 B( 10-Au, 12-Au) :   0.2850 B( 10-Au, 15-Fe) :   0.1598
B( 11-Au, 13-Au) :   0.2780 B( 12-Au, 14-Au) :   0.2818 B( 12-Au, 15-Fe) :   0.2115
B( 13-Au, 14-Au) :   0.2359 B( 13-Au, 15-Fe) :   0.3773 B( 14-Au, 15-Fe) :   0.3074

FINAL SINGLE POINT ENERGY     -3300.906302475854

DIPOLE MOMENT
-------------
                                X             Y             Z
Electronic contribution:      2.56554       3.18421      -4.60717
Nuclear contribution   :     -2.65489      -3.29697       4.75415
                        -----------------------------------------
Total Dipole Moment    :     -0.08935      -0.11276       0.14698
                        -----------------------------------------
Magnitude (a.u.)       :      0.20568
Magnitude (Debye)      :      0.52278

Rotational constants in cm-1:     0.001110     0.000915     0.000817
Rotational constants in MHz :    33.273107    27.424153    24.505279

                             ****ORCA TERMINATED NORMALLY****
TOTAL RUN TIME: 0 days 0 hours 37 minutes 15 seconds 47 msec
