                         Program Version 5.0.3 -  RELEASE  -
|  1> !R2SCAN def2-TZVP VERYSLOWCONV
|  2>
|  3> %scf
|  4>   AutoTRAHIter 200
|  5>   maxiter 400
|  6> end
|  7>
|  8> %pal nprocs 6 end
|  9>
| 10> *xyzfile 0 6 pbe.xyz
| 11>
| 12> $new_job
| 13>
| 14> !R2SCAN def2-TZVP VERYSLOWCONV
| 15> %scf
| 16>   AutoTRAHIter 200
| 17>   maxiter 400
| 18> end
| 19>
| 20>
| 21> %pal nprocs 6 end
| 22>
| 23> *xyzfile 0 4 pbe.xyz
| 24>
| 25>
| 26>
| 27>
| 28>
| 29>                          ****END OF INPUT****
 Total Charge           Charge          ....    0
 Multiplicity           Mult            ....    6
 Number of Electrons    NEL             ....  311
FINAL SINGLE POINT ENERGY     -3301.440740806340

CARTESIAN COORDINATES (ANGSTROEM)
---------------------------------
  Au     6.316233   10.185823    7.949113
  Au     7.711481   10.292990    5.559996
  Au     5.750292    8.366929    5.846178
  Au     9.170108   10.721872    7.886124
  Au     5.658403    8.247870    9.755422
  Au     8.095600    9.533080   10.101182
  Au    10.130058    8.096393    8.679923
  Au     8.351023    6.771940   10.272197
  Au     9.523549    6.297314    6.570055
  Au     7.757853    5.011913    8.203471
  Au    10.208676    8.924089    6.038897
  Au     5.867408    5.501530   10.199434
  Au     8.227617    7.794952    4.446586
  Au     5.100351    6.468882    7.693736
  Au     6.872113    5.751142    5.672451
  Fe     7.579938    7.778206    7.782676

 Multiplicity           Mult            ....    4
 Number of Electrons    NEL             ....  311
 Basis Dimension        Dim             ....  645

ORBITAL ENERGIES
----------------
                 SPIN UP ORBITALS
  NO   OCC          E(Eh)            E(eV)
   0   1.0000    -255.641193     -6956.3505
   1   1.0000     -29.936066      -814.6018
   2   1.0000     -25.781930      -701.5620
   3   1.0000     -25.759931      -700.9634
   4   1.0000     -25.756960      -700.8825
   5   1.0000      -4.127721      -112.3210
   6   1.0000      -4.127682      -112.3199
   7   1.0000      -4.127560      -112.3166
   8   1.0000      -4.127553      -112.3164
   9   1.0000      -4.123177      -112.1974
  10   1.0000      -4.122243      -112.1719
  11   1.0000      -4.121544      -112.1529
  12   1.0000      -4.121521      -112.1523
  13   1.0000      -4.121237      -112.1445
  14   1.0000      -4.121217      -112.1440
  15   1.0000      -4.117289      -112.0371
  16   1.0000      -4.117203      -112.0348
  17   1.0000      -4.116416      -112.0134
  18   1.0000      -4.113055      -111.9219
  19   1.0000      -4.111905      -111.8906
  20   1.0000      -3.519894       -95.7812
  21   1.0000      -2.318302       -63.0842
  22   1.0000      -2.316048       -63.0229
  23   1.0000      -2.315793       -63.0159
  24   1.0000      -2.315694       -63.0132
  25   1.0000      -2.315662       -63.0124
  26   1.0000      -2.314783       -62.9885
  27   1.0000      -2.313384       -62.9504
  28   1.0000      -2.313044       -62.9411
  29   1.0000      -2.312992       -62.9397
  30   1.0000      -2.312110       -62.9157
  31   1.0000      -2.311768       -62.9064
  32   1.0000      -2.311538       -62.9001
  33   1.0000      -2.311103       -62.8883
  34   1.0000      -2.310559       -62.8735
  35   1.0000      -2.310391       -62.8689
  36   1.0000      -2.310354       -62.8679
  37   1.0000      -2.309296       -62.8391
  38   1.0000      -2.309232       -62.8374
  39   1.0000      -2.308699       -62.8229
  40   1.0000      -2.308373       -62.8140
  41   1.0000      -2.307871       -62.8004
  42   1.0000      -2.307591       -62.7927
  43   1.0000      -2.307397       -62.7875
  44   1.0000      -2.307380       -62.7870
  45   1.0000      -2.306735       -62.7695
  46   1.0000      -2.305453       -62.7346
  47   1.0000      -2.305138       -62.7260
  48   1.0000      -2.304905       -62.7196
  49   1.0000      -2.304687       -62.7137
  50   1.0000      -2.304570       -62.7105
  51   1.0000      -2.304199       -62.7004
  52   1.0000      -2.303754       -62.6883
  53   1.0000      -2.303424       -62.6793
  54   1.0000      -2.303409       -62.6790
  55   1.0000      -2.302829       -62.6632
  56   1.0000      -2.301946       -62.6391
  57   1.0000      -2.301933       -62.6388
  58   1.0000      -2.301825       -62.6358
  59   1.0000      -2.301034       -62.6143
  60   1.0000      -2.299878       -62.5829
  61   1.0000      -2.299694       -62.5779
  62   1.0000      -2.299076       -62.5610
  63   1.0000      -2.297890       -62.5288
  64   1.0000      -2.296866       -62.5009
  65   1.0000      -2.296386       -62.4878
  66   1.0000      -2.295166       -62.4547
  67   1.0000      -2.272380       -61.8346
  68   1.0000      -2.266377       -61.6713
  69   1.0000      -0.442533       -12.0419
  70   1.0000      -0.396847       -10.7988
  71   1.0000      -0.395969       -10.7749
  72   1.0000      -0.394388       -10.7318
  73   1.0000      -0.390601       -10.6288
  74   1.0000      -0.389886       -10.6093
  75   1.0000      -0.388104       -10.5609
  76   1.0000      -0.385073       -10.4784
  77   1.0000      -0.380090       -10.3428
  78   1.0000      -0.376593       -10.2476
  79   1.0000      -0.370388       -10.0788
  80   1.0000      -0.370124       -10.0716
  81   1.0000      -0.368556       -10.0289
  82   1.0000      -0.367292        -9.9945
  83   1.0000      -0.363870        -9.9014
  84   1.0000      -0.362991        -9.8775
  85   1.0000      -0.362335        -9.8596
  86   1.0000      -0.362317        -9.8592
  87   1.0000      -0.360265        -9.8033
  88   1.0000      -0.355552        -9.6751
  89   1.0000      -0.354998        -9.6600
  90   1.0000      -0.354784        -9.6542
  91   1.0000      -0.353635        -9.6229
  92   1.0000      -0.349623        -9.5137
  93   1.0000      -0.349526        -9.5111
  94   1.0000      -0.346939        -9.4407
  95   1.0000      -0.344871        -9.3844
  96   1.0000      -0.342723        -9.3260
  97   1.0000      -0.342543        -9.3211
  98   1.0000      -0.341258        -9.2861
  99   1.0000      -0.337232        -9.1765
 100   1.0000      -0.332696        -9.0531
 101   1.0000      -0.330778        -9.0009
 102   1.0000      -0.329189        -8.9577
 103   1.0000      -0.328447        -8.9375
 104   1.0000      -0.322130        -8.7656
 105   1.0000      -0.321262        -8.7420
 106   1.0000      -0.318457        -8.6657
 107   1.0000      -0.317283        -8.6337
 108   1.0000      -0.312103        -8.4928
 109   1.0000      -0.309423        -8.4198
 110   1.0000      -0.309225        -8.4145
 111   1.0000      -0.307812        -8.3760
 112   1.0000      -0.304430        -8.2840
 113   1.0000      -0.303909        -8.2698
 114   1.0000      -0.295634        -8.0446
 115   1.0000      -0.291694        -7.9374
 116   1.0000      -0.288782        -7.8581
 117   1.0000      -0.287626        -7.8267
 118   1.0000      -0.284940        -7.7536
 119   1.0000      -0.284643        -7.7455
 120   1.0000      -0.284391        -7.7387
 121   1.0000      -0.281420        -7.6578
 122   1.0000      -0.280297        -7.6273
 123   1.0000      -0.279475        -7.6049
 124   1.0000      -0.278491        -7.5781
 125   1.0000      -0.277720        -7.5571
 126   1.0000      -0.277569        -7.5530
 127   1.0000      -0.275909        -7.5079
 128   1.0000      -0.275409        -7.4943
 129   1.0000      -0.274645        -7.4735
 130   1.0000      -0.273033        -7.4296
 131   1.0000      -0.272947        -7.4273
 132   1.0000      -0.271062        -7.3760
 133   1.0000      -0.270852        -7.3703
 134   1.0000      -0.270106        -7.3499
 135   1.0000      -0.268961        -7.3188
 136   1.0000      -0.268095        -7.2952
 137   1.0000      -0.266661        -7.2562
 138   1.0000      -0.264700        -7.2028
 139   1.0000      -0.263101        -7.1593
 140   1.0000      -0.262393        -7.1401
 141   1.0000      -0.260354        -7.0846
 142   1.0000      -0.260278        -7.0825
 143   1.0000      -0.258186        -7.0256
 144   1.0000      -0.257984        -7.0201
 145   1.0000      -0.257530        -7.0078
 146   1.0000      -0.254333        -6.9208
 147   1.0000      -0.251185        -6.8351
 148   1.0000      -0.250885        -6.8269
 149   1.0000      -0.250469        -6.8156
 150   1.0000      -0.249823        -6.7980
 151   1.0000      -0.246982        -6.7207
 152   1.0000      -0.236608        -6.4384
 153   1.0000      -0.230534        -6.2732
 154   1.0000      -0.209575        -5.7028
 155   1.0000      -0.209017        -5.6876
 156   1.0000      -0.201461        -5.4820
 157   0.0000      -0.195985        -5.3330
 158   0.0000      -0.145049        -3.9470
 159   0.0000      -0.130621        -3.5544
 160   0.0000      -0.130079        -3.5396
 161   0.0000      -0.125684        -3.4200

                 SPIN DOWN ORBITALS
  NO   OCC          E(Eh)            E(eV)
   0   1.0000    -255.640224     -6956.3241
   1   1.0000     -29.856981      -812.4497
   2   1.0000     -25.713445      -699.6984
   3   1.0000     -25.702736      -699.4070
   4   1.0000     -25.701704      -699.3789
   5   1.0000      -4.127300      -112.3095
   6   1.0000      -4.127297      -112.3095
   7   1.0000      -4.127177      -112.3062
   8   1.0000      -4.127141      -112.3052
   9   1.0000      -4.123574      -112.2082
  10   1.0000      -4.122664      -112.1834
  11   1.0000      -4.121301      -112.1463
  12   1.0000      -4.121273      -112.1455
  13   1.0000      -4.121023      -112.1387
  14   1.0000      -4.120999      -112.1381
  15   1.0000      -4.117743      -112.0495
  16   1.0000      -4.117656      -112.0471
  17   1.0000      -4.116728      -112.0219
  18   1.0000      -4.113852      -111.9436
  19   1.0000      -4.112609      -111.9098
  20   1.0000      -3.341393       -90.9239
  21   1.0000      -2.315547       -63.0092
  22   1.0000      -2.315484       -63.0075
  23   1.0000      -2.315049       -62.9957
  24   1.0000      -2.315026       -62.9951
  25   1.0000      -2.314029       -62.9679
  26   1.0000      -2.314017       -62.9676
  27   1.0000      -2.312397       -62.9235
  28   1.0000      -2.312273       -62.9202
  29   1.0000      -2.312171       -62.9174
  30   1.0000      -2.311724       -62.9052
  31   1.0000      -2.311651       -62.9032
  32   1.0000      -2.311253       -62.8924
  33   1.0000      -2.310507       -62.8721
  34   1.0000      -2.310305       -62.8666
  35   1.0000      -2.310243       -62.8649
  36   1.0000      -2.309388       -62.8416
  37   1.0000      -2.309091       -62.8335
  38   1.0000      -2.308715       -62.8233
  39   1.0000      -2.308327       -62.8128
  40   1.0000      -2.307668       -62.7948
  41   1.0000      -2.307593       -62.7928
  42   1.0000      -2.307310       -62.7851
  43   1.0000      -2.307230       -62.7829
  44   1.0000      -2.306989       -62.7764
  45   1.0000      -2.305763       -62.7430
  46   1.0000      -2.305448       -62.7344
  47   1.0000      -2.304789       -62.7165
  48   1.0000      -2.304776       -62.7161
  49   1.0000      -2.304547       -62.7099
  50   1.0000      -2.304351       -62.7046
  51   1.0000      -2.304313       -62.7035
  52   1.0000      -2.303713       -62.6872
  53   1.0000      -2.303577       -62.6835
  54   1.0000      -2.302829       -62.6632
  55   1.0000      -2.302489       -62.6539
  56   1.0000      -2.302148       -62.6446
  57   1.0000      -2.301929       -62.6387
  58   1.0000      -2.301423       -62.6249
  59   1.0000      -2.300662       -62.6042
  60   1.0000      -2.299915       -62.5839
  61   1.0000      -2.299803       -62.5808
  62   1.0000      -2.298532       -62.5462
  63   1.0000      -2.297534       -62.5191
  64   1.0000      -2.296959       -62.5034
  65   1.0000      -2.295655       -62.4679
  66   1.0000      -2.120617       -57.7049
  67   1.0000      -2.105159       -57.2843
  68   1.0000      -2.103992       -57.2525
  69   1.0000      -0.439690       -11.9646
  70   1.0000      -0.397407       -10.8140
  71   1.0000      -0.395574       -10.7641
  72   1.0000      -0.395079       -10.7506
  73   1.0000      -0.384846       -10.4722
  74   1.0000      -0.380491       -10.3537
  75   1.0000      -0.378480       -10.2990
  76   1.0000      -0.375752       -10.2247
  77   1.0000      -0.375259       -10.2113
  78   1.0000      -0.374498       -10.1906
  79   1.0000      -0.369931       -10.0663
  80   1.0000      -0.369463       -10.0536
  81   1.0000      -0.368985       -10.0406
  82   1.0000      -0.364641        -9.9224
  83   1.0000      -0.364432        -9.9167
  84   1.0000      -0.362635        -9.8678
  85   1.0000      -0.362586        -9.8665
  86   1.0000      -0.361177        -9.8281
  87   1.0000      -0.360383        -9.8065
  88   1.0000      -0.354871        -9.6565
  89   1.0000      -0.354630        -9.6500
  90   1.0000      -0.354068        -9.6347
  91   1.0000      -0.353856        -9.6289
  92   1.0000      -0.349792        -9.5183
  93   1.0000      -0.347284        -9.4501
  94   1.0000      -0.345273        -9.3953
  95   1.0000      -0.342928        -9.3316
  96   1.0000      -0.341119        -9.2823
  97   1.0000      -0.340243        -9.2585
  98   1.0000      -0.334845        -9.1116
  99   1.0000      -0.333766        -9.0822
 100   1.0000      -0.330640        -8.9972
 101   1.0000      -0.325208        -8.8494
 102   1.0000      -0.324461        -8.8290
 103   1.0000      -0.324334        -8.8256
 104   1.0000      -0.322474        -8.7750
 105   1.0000      -0.320986        -8.7345
 106   1.0000      -0.316446        -8.6109
 107   1.0000      -0.310054        -8.4370
 108   1.0000      -0.304889        -8.2965
 109   1.0000      -0.303924        -8.2702
 110   1.0000      -0.302987        -8.2447
 111   1.0000      -0.302837        -8.2406
 112   1.0000      -0.297171        -8.0864
 113   1.0000      -0.296077        -8.0567
 114   1.0000      -0.291839        -7.9413
 115   1.0000      -0.290559        -7.9065
 116   1.0000      -0.288059        -7.8385
 117   1.0000      -0.283711        -7.7202
 118   1.0000      -0.282936        -7.6991
 119   1.0000      -0.281888        -7.6706
 120   1.0000      -0.280655        -7.6370
 121   1.0000      -0.280144        -7.6231
 122   1.0000      -0.278106        -7.5676
 123   1.0000      -0.277872        -7.5613
 124   1.0000      -0.276593        -7.5265
 125   1.0000      -0.274417        -7.4673
 126   1.0000      -0.274363        -7.4658
 127   1.0000      -0.273716        -7.4482
 128   1.0000      -0.272838        -7.4243
 129   1.0000      -0.271873        -7.3980
 130   1.0000      -0.271060        -7.3759
 131   1.0000      -0.270470        -7.3599
 132   1.0000      -0.269336        -7.3290
 133   1.0000      -0.268108        -7.2956
 134   1.0000      -0.265515        -7.2250
 135   1.0000      -0.263622        -7.1735
 136   1.0000      -0.263147        -7.1606
 137   1.0000      -0.262928        -7.1546
 138   1.0000      -0.260013        -7.0753
 139   1.0000      -0.258426        -7.0321
 140   1.0000      -0.257761        -7.0140
 141   1.0000      -0.255499        -6.9525
 142   1.0000      -0.255327        -6.9478
 143   1.0000      -0.252643        -6.8748
 144   1.0000      -0.251942        -6.8557
 145   1.0000      -0.251469        -6.8428
 146   1.0000      -0.249291        -6.7836
 147   1.0000      -0.237078        -6.4512
 148   1.0000      -0.233607        -6.3568
 149   1.0000      -0.220986        -6.0133
 150   1.0000      -0.216120        -5.8809
 151   1.0000      -0.213895        -5.8204
 152   1.0000      -0.208560        -5.6752
 153   1.0000      -0.181104        -4.9281
 154   0.0000      -0.158148        -4.3034
 155   0.0000      -0.149644        -4.0720
 156   0.0000      -0.145267        -3.9529
 157   0.0000      -0.143053        -3.8927
 158   0.0000      -0.128852        -3.5062

MULLIKEN ATOMIC CHARGES AND SPIN POPULATIONS
--------------------------------------------
   0 Au:    0.128286    0.011067
   1 Au:    0.153429    0.028502
   2 Au:    0.116800    0.015624
   3 Au:    0.100040   -0.132179
   4 Au:    0.063605    0.050198
   5 Au:    0.293847   -0.152877
   6 Au:    0.128789    0.011824
   7 Au:    0.064786    0.050861
   8 Au:    0.118576    0.014946
   9 Au:    0.057075    0.047207
  10 Au:    0.152599    0.028472
  11 Au:    0.351296    0.001100
  12 Au:    0.092333   -0.095693
  13 Au:    0.057868    0.047671
  14 Au:    0.288254   -0.163875
  15 Fe:   -2.167584    3.237152
Sum of atomic charges         :   -0.0000000

LOEWDIN ATOMIC CHARGES AND SPIN POPULATIONS
-------------------------------------------
   0 Au:    0.044117   -0.020342
   1 Au:    0.008469   -0.009928
   2 Au:    0.039266   -0.015017
   3 Au:    0.008657   -0.080637
   4 Au:    0.012433    0.012393
   5 Au:    0.048563   -0.072608
   6 Au:    0.044438   -0.019766
   7 Au:    0.012883    0.012870
   8 Au:    0.039714   -0.015500
   9 Au:    0.010302    0.008966
  10 Au:    0.008311   -0.009984
  11 Au:    0.094399    0.002494
  12 Au:    0.006251   -0.060458
  13 Au:    0.010581    0.009277
  14 Au:    0.045497   -0.074029
  15 Fe:   -0.433881    3.332271

  Mayer bond orders larger than 0.100000
B(  0-Au,  1-Au) :   0.2731 B(  0-Au,  2-Au) :   0.1158 B(  0-Au,  3-Au) :   0.1865
B(  0-Au,  4-Au) :   0.2790 B(  0-Au,  5-Au) :   0.1600 B(  0-Au, 15-Fe) :   0.4822
B(  1-Au,  2-Au) :   0.2738 B(  1-Au,  3-Au) :   0.2716 B(  1-Au, 10-Au) :   0.1591
B(  1-Au, 12-Au) :   0.2720 B(  1-Au, 15-Fe) :   0.1786 B(  2-Au, 12-Au) :   0.1892
B(  2-Au, 13-Au) :   0.2851 B(  2-Au, 14-Au) :   0.1738 B(  2-Au, 15-Fe) :   0.4788
B(  3-Au,  5-Au) :   0.2587 B(  3-Au,  6-Au) :   0.1859 B(  3-Au, 10-Au) :   0.2715
B(  3-Au, 15-Fe) :   0.1946 B(  4-Au,  5-Au) :   0.2294 B(  4-Au, 11-Au) :   0.2714
B(  4-Au, 13-Au) :   0.2161 B(  4-Au, 15-Fe) :   0.3746 B(  5-Au,  6-Au) :   0.1602
B(  5-Au,  7-Au) :   0.2287 B(  5-Au, 15-Fe) :   0.3100 B(  6-Au,  7-Au) :   0.2786
B(  6-Au,  8-Au) :   0.1155 B(  6-Au, 10-Au) :   0.2730 B(  6-Au, 15-Fe) :   0.4835
B(  7-Au,  9-Au) :   0.2161 B(  7-Au, 11-Au) :   0.2708 B(  7-Au, 15-Fe) :   0.3752
B(  8-Au,  9-Au) :   0.2852 B(  8-Au, 10-Au) :   0.2721 B(  8-Au, 12-Au) :   0.1887
B(  8-Au, 14-Au) :   0.1734 B(  8-Au, 15-Fe) :   0.4788 B(  9-Au, 11-Au) :   0.2678
B(  9-Au, 14-Au) :   0.2271 B(  9-Au, 15-Fe) :   0.3712 B( 10-Au, 12-Au) :   0.2736
B( 10-Au, 15-Fe) :   0.1793 B( 11-Au, 13-Au) :   0.2672 B( 12-Au, 14-Au) :   0.2608
B( 12-Au, 15-Fe) :   0.1876 B( 13-Au, 14-Au) :   0.2270 B( 13-Au, 15-Fe) :   0.3716
B( 14-Au, 15-Fe) :   0.2887

FINAL SINGLE POINT ENERGY     -3301.427061140280

DIPOLE MOMENT
-------------
                                X             Y             Z
Electronic contribution:      2.51015       3.11283      -4.52227
Nuclear contribution   :     -2.65489      -3.29697       4.75415
                        -----------------------------------------
Total Dipole Moment    :     -0.14475      -0.18414       0.23188
                        -----------------------------------------
Magnitude (a.u.)       :      0.32959
Magnitude (Debye)      :      0.83774

Rotational constants in cm-1:     0.001110     0.000915     0.000817
Rotational constants in MHz :    33.273107    27.424153    24.505279

                             ****ORCA TERMINATED NORMALLY****
TOTAL RUN TIME: 0 days 0 hours 23 minutes 29 seconds 936 msec
