                         Program Version 5.0.3 -  RELEASE  -
|  1> !RI-B2PLYP def2-TZVP def2-TZVP/C
|  2> !RIJCOSX VERYSLOWCONV
|  3>
|  4> %scf
|  5>   AutoTRAHIter 200
|  6>   maxiter 400
|  7> end
|  8>
|  9>
| 10> %pal nprocs 6 end
| 11>
| 12> *xyzfile 0 5 pbe.xyz
| 13>
| 14> $new_job
| 15>
| 16> !RI-B2PLYP def2-TZVP def2-TZVP/C
| 17> !RIJCOSX VERYSLOWCONV
| 18>
| 19> %scf
| 20>   AutoTRAHIter 200
| 21>   maxiter 400
| 22> end
| 23>
| 24>
| 25> %pal nprocs 6 end
| 26>
| 27> *xyzfile 0 3 pbe.xyz
| 28>
| 29>
| 30>
| 31>
| 32>
| 33>                          ****END OF INPUT****
 Total Charge           Charge          ....    0
 Multiplicity           Mult            ....    5
 Number of Electrons    NEL             ....  330
MP2 TOTAL ENERGY:    -3432.967265946 Eh
FINAL SINGLE POINT ENERGY     -3432.967265946047

CARTESIAN COORDINATES (ANGSTROEM)
---------------------------------
  Au     8.462613    8.150554    9.455856
  Au     5.787510    7.627012    9.654160
  Au     6.406256    9.991877    8.243397
  Au     9.021972    9.635580    7.145110
  Au     7.274901   11.505329    6.093720
  Au    10.096574    7.029278    7.508187
  Au     4.269827    7.953950    7.315767
  Au     5.508208    5.485356    7.813462
  Au     8.078563    5.209808    6.924530
  Au     8.702347    7.187217    5.035746
  Au     6.451647   11.026963    3.418750
  Au    11.030553    8.705975    5.415092
  Au     6.841113    8.218167    3.266013
  Au     8.860405    9.955025    4.297236
  Au     5.948490    6.442927    5.193031
  Au     5.603112    9.368692    5.474320
  Fe     7.052183    7.637247    7.261428

 Multiplicity           Mult            ....    3
 Number of Electrons    NEL             ....  330
 Basis Dimension        Dim             ....  685

ORBITAL ENERGIES
----------------
                 SPIN UP ORBITALS
  NO   OCC          E(Eh)            E(eV)
   0   1.0000    -258.337848     -7029.7302
   1   1.0000     -30.897409      -840.7612
   2   1.0000     -26.607129      -724.0168
   3   1.0000     -26.602912      -723.9020
   4   1.0000     -26.576952      -723.1956
   5   1.0000      -4.409592      -119.9911
   6   1.0000      -4.409574      -119.9906
   7   1.0000      -4.409481      -119.9881
   8   1.0000      -4.409418      -119.9864
   9   1.0000      -4.402882      -119.8085
  10   1.0000      -4.402745      -119.8048
  11   1.0000      -4.402594      -119.8007
  12   1.0000      -4.401874      -119.7811
  13   1.0000      -4.401856      -119.7806
  14   1.0000      -4.397267      -119.6557
  15   1.0000      -4.396841      -119.6441
  16   1.0000      -4.395998      -119.6212
  17   1.0000      -4.395972      -119.6205
  18   1.0000      -4.393868      -119.5632
  19   1.0000      -4.390586      -119.4739
  20   1.0000      -4.380016      -119.1863
  21   1.0000      -3.909364      -106.3792
  22   1.0000      -2.643117       -71.9229
  23   1.0000      -2.632583       -71.6362
  24   1.0000      -2.578713       -70.1703
  25   1.0000      -2.530374       -68.8550
  26   1.0000      -2.530246       -68.8515
  27   1.0000      -2.529291       -68.8255
  28   1.0000      -2.529251       -68.8244
  29   1.0000      -2.528909       -68.8151
  30   1.0000      -2.528820       -68.8127
  31   1.0000      -2.526469       -68.7487
  32   1.0000      -2.526361       -68.7458
  33   1.0000      -2.525348       -68.7182
  34   1.0000      -2.525105       -68.7116
  35   1.0000      -2.524478       -68.6945
  36   1.0000      -2.523860       -68.6777
  37   1.0000      -2.523734       -68.6743
  38   1.0000      -2.523010       -68.6546
  39   1.0000      -2.522964       -68.6533
  40   1.0000      -2.522255       -68.6341
  41   1.0000      -2.521519       -68.6140
  42   1.0000      -2.521391       -68.6105
  43   1.0000      -2.520348       -68.5822
  44   1.0000      -2.519539       -68.5601
  45   1.0000      -2.518723       -68.5379
  46   1.0000      -2.517734       -68.5110
  47   1.0000      -2.517568       -68.5065
  48   1.0000      -2.517212       -68.4968
  49   1.0000      -2.516721       -68.4835
  50   1.0000      -2.516471       -68.4767
  51   1.0000      -2.516024       -68.4645
  52   1.0000      -2.515929       -68.4619
  53   1.0000      -2.515690       -68.4554
  54   1.0000      -2.515677       -68.4551
  55   1.0000      -2.514476       -68.4224
  56   1.0000      -2.514115       -68.4125
  57   1.0000      -2.513657       -68.4001
  58   1.0000      -2.513092       -68.3847
  59   1.0000      -2.512092       -68.3575
  60   1.0000      -2.511956       -68.3538
  61   1.0000      -2.511544       -68.3426
  62   1.0000      -2.511322       -68.3366
  63   1.0000      -2.511187       -68.3329
  64   1.0000      -2.510783       -68.3219
  65   1.0000      -2.509840       -68.2962
  66   1.0000      -2.509834       -68.2961
  67   1.0000      -2.508370       -68.2562
  68   1.0000      -2.506518       -68.2058
  69   1.0000      -2.506219       -68.1977
  70   1.0000      -2.497889       -67.9710
  71   1.0000      -2.496758       -67.9402
  72   1.0000      -2.495066       -67.8942
  73   1.0000      -0.564137       -15.3509
  74   1.0000      -0.561822       -15.2880
  75   1.0000      -0.544649       -14.8206
  76   1.0000      -0.536407       -14.5964
  77   1.0000      -0.521671       -14.1954
  78   1.0000      -0.496343       -13.5062
  79   1.0000      -0.480859       -13.0848
  80   1.0000      -0.479778       -13.0554
  81   1.0000      -0.472702       -12.8629
  82   1.0000      -0.472315       -12.8523
  83   1.0000      -0.471162       -12.8210
  84   1.0000      -0.469016       -12.7626
  85   1.0000      -0.468136       -12.7386
  86   1.0000      -0.464318       -12.6347
  87   1.0000      -0.460476       -12.5302
  88   1.0000      -0.460280       -12.5248
  89   1.0000      -0.459690       -12.5088
  90   1.0000      -0.457520       -12.4497
  91   1.0000      -0.457300       -12.4438
  92   1.0000      -0.453556       -12.3419
  93   1.0000      -0.451406       -12.2834
  94   1.0000      -0.447778       -12.1846
  95   1.0000      -0.445475       -12.1220
  96   1.0000      -0.443870       -12.0783
  97   1.0000      -0.442429       -12.0391
  98   1.0000      -0.440280       -11.9806
  99   1.0000      -0.438062       -11.9203
 100   1.0000      -0.435176       -11.8417
 101   1.0000      -0.434989       -11.8367
 102   1.0000      -0.434520       -11.8239
 103   1.0000      -0.429576       -11.6893
 104   1.0000      -0.426675       -11.6104
 105   1.0000      -0.425923       -11.5900
 106   1.0000      -0.423990       -11.5373
 107   1.0000      -0.422106       -11.4861
 108   1.0000      -0.418045       -11.3756
 109   1.0000      -0.414097       -11.2682
 110   1.0000      -0.412506       -11.2249
 111   1.0000      -0.411465       -11.1965
 112   1.0000      -0.407210       -11.0808
 113   1.0000      -0.406315       -11.0564
 114   1.0000      -0.405013       -11.0210
 115   1.0000      -0.402306       -10.9473
 116   1.0000      -0.396730       -10.7956
 117   1.0000      -0.393860       -10.7175
 118   1.0000      -0.392578       -10.6826
 119   1.0000      -0.392552       -10.6819
 120   1.0000      -0.389459       -10.5977
 121   1.0000      -0.388380       -10.5684
 122   1.0000      -0.385806       -10.4983
 123   1.0000      -0.382121       -10.3980
 124   1.0000      -0.379702       -10.3322
 125   1.0000      -0.379590       -10.3292
 126   1.0000      -0.377549       -10.2736
 127   1.0000      -0.376455       -10.2439
 128   1.0000      -0.375090       -10.2067
 129   1.0000      -0.373345       -10.1592
 130   1.0000      -0.371333       -10.1045
 131   1.0000      -0.371039       -10.0965
 132   1.0000      -0.369485       -10.0542
 133   1.0000      -0.368802       -10.0356
 134   1.0000      -0.367070        -9.9885
 135   1.0000      -0.365170        -9.9368
 136   1.0000      -0.365116        -9.9353
 137   1.0000      -0.364109        -9.9079
 138   1.0000      -0.363059        -9.8794
 139   1.0000      -0.362371        -9.8606
 140   1.0000      -0.360495        -9.8096
 141   1.0000      -0.359479        -9.7819
 142   1.0000      -0.358051        -9.7431
 143   1.0000      -0.357541        -9.7292
 144   1.0000      -0.354794        -9.6544
 145   1.0000      -0.354648        -9.6505
 146   1.0000      -0.352816        -9.6006
 147   1.0000      -0.350056        -9.5255
 148   1.0000      -0.346633        -9.4324
 149   1.0000      -0.343765        -9.3543
 150   1.0000      -0.342703        -9.3254
 151   1.0000      -0.342671        -9.3245
 152   1.0000      -0.337902        -9.1948
 153   1.0000      -0.336283        -9.1507
 154   1.0000      -0.331935        -9.0324
 155   1.0000      -0.330653        -8.9975
 156   1.0000      -0.330442        -8.9918
 157   1.0000      -0.327106        -8.9010
 158   1.0000      -0.323671        -8.8075
 159   1.0000      -0.323455        -8.8016
 160   1.0000      -0.318838        -8.6760
 161   1.0000      -0.310944        -8.4612
 162   1.0000      -0.252941        -6.8829
 163   1.0000      -0.243399        -6.6232
 164   1.0000      -0.241401        -6.5689
 165   1.0000      -0.215274        -5.8579
 166   0.0000      -0.126247        -3.4354
 167   0.0000      -0.089813        -2.4439
 168   0.0000      -0.080414        -2.1882
 169   0.0000      -0.079435        -2.1615
 170   0.0000      -0.074002        -2.0137

                 SPIN DOWN ORBITALS
  NO   OCC          E(Eh)            E(eV)
   0   1.0000    -258.335983     -7029.6795
   1   1.0000     -30.805210      -838.2524
   2   1.0000     -26.514480      -721.4957
   3   1.0000     -26.513503      -721.4691
   4   1.0000     -26.506302      -721.2731
   5   1.0000      -4.410943      -120.0279
   6   1.0000      -4.410916      -120.0271
   7   1.0000      -4.409664      -119.9930
   8   1.0000      -4.409562      -119.9903
   9   1.0000      -4.402852      -119.8077
  10   1.0000      -4.402715      -119.8040
  11   1.0000      -4.402533      -119.7990
  12   1.0000      -4.401746      -119.7776
  13   1.0000      -4.401728      -119.7771
  14   1.0000      -4.397358      -119.6582
  15   1.0000      -4.397305      -119.6567
  16   1.0000      -4.396078      -119.6234
  17   1.0000      -4.396056      -119.6228
  18   1.0000      -4.394739      -119.5869
  19   1.0000      -4.390878      -119.4819
  20   1.0000      -4.383164      -119.2720
  21   1.0000      -3.666791       -99.7784
  22   1.0000      -2.530553       -68.8598
  23   1.0000      -2.530393       -68.8555
  24   1.0000      -2.529679       -68.8361
  25   1.0000      -2.529525       -68.8319
  26   1.0000      -2.528783       -68.8117
  27   1.0000      -2.528700       -68.8094
  28   1.0000      -2.526891       -68.7602
  29   1.0000      -2.526743       -68.7562
  30   1.0000      -2.525816       -68.7309
  31   1.0000      -2.525160       -68.7131
  32   1.0000      -2.524865       -68.7051
  33   1.0000      -2.523548       -68.6692
  34   1.0000      -2.523224       -68.6604
  35   1.0000      -2.522698       -68.6461
  36   1.0000      -2.522674       -68.6454
  37   1.0000      -2.522040       -68.6282
  38   1.0000      -2.520600       -68.5890
  39   1.0000      -2.520496       -68.5862
  40   1.0000      -2.520209       -68.5784
  41   1.0000      -2.519516       -68.5595
  42   1.0000      -2.518924       -68.5434
  43   1.0000      -2.518611       -68.5349
  44   1.0000      -2.517498       -68.5046
  45   1.0000      -2.517195       -68.4964
  46   1.0000      -2.516864       -68.4874
  47   1.0000      -2.516450       -68.4761
  48   1.0000      -2.515825       -68.4591
  49   1.0000      -2.515584       -68.4525
  50   1.0000      -2.515411       -68.4478
  51   1.0000      -2.515365       -68.4466
  52   1.0000      -2.514657       -68.4273
  53   1.0000      -2.514421       -68.4209
  54   1.0000      -2.513795       -68.4038
  55   1.0000      -2.513341       -68.3915
  56   1.0000      -2.512349       -68.3645
  57   1.0000      -2.512080       -68.3572
  58   1.0000      -2.511960       -68.3539
  59   1.0000      -2.511722       -68.3474
  60   1.0000      -2.511687       -68.3465
  61   1.0000      -2.511525       -68.3421
  62   1.0000      -2.511061       -68.3294
  63   1.0000      -2.510635       -68.3178
  64   1.0000      -2.508718       -68.2657
  65   1.0000      -2.506712       -68.2111
  66   1.0000      -2.506593       -68.2079
  67   1.0000      -2.501355       -68.0653
  68   1.0000      -2.498403       -67.9850
  69   1.0000      -2.498275       -67.9815
  70   1.0000      -2.347644       -63.8827
  71   1.0000      -2.337934       -63.6184
  72   1.0000      -2.337415       -63.6043
  73   1.0000      -0.519943       -14.1484
  74   1.0000      -0.485998       -13.2247
  75   1.0000      -0.484291       -13.1782
  76   1.0000      -0.477620       -12.9967
  77   1.0000      -0.477362       -12.9897
  78   1.0000      -0.475232       -12.9317
  79   1.0000      -0.473246       -12.8777
  80   1.0000      -0.472412       -12.8550
  81   1.0000      -0.470758       -12.8100
  82   1.0000      -0.466823       -12.7029
  83   1.0000      -0.466237       -12.6870
  84   1.0000      -0.465584       -12.6692
  85   1.0000      -0.463317       -12.6075
  86   1.0000      -0.460760       -12.5379
  87   1.0000      -0.457819       -12.4579
  88   1.0000      -0.456527       -12.4227
  89   1.0000      -0.455845       -12.4042
  90   1.0000      -0.455004       -12.3813
  91   1.0000      -0.448743       -12.2109
  92   1.0000      -0.447237       -12.1699
  93   1.0000      -0.446387       -12.1468
  94   1.0000      -0.444473       -12.0947
  95   1.0000      -0.439700       -11.9648
  96   1.0000      -0.438346       -11.9280
  97   1.0000      -0.436784       -11.8855
  98   1.0000      -0.434904       -11.8343
  99   1.0000      -0.432184       -11.7603
 100   1.0000      -0.431221       -11.7341
 101   1.0000      -0.428040       -11.6475
 102   1.0000      -0.424424       -11.5492
 103   1.0000      -0.421716       -11.4755
 104   1.0000      -0.415503       -11.3064
 105   1.0000      -0.414847       -11.2886
 106   1.0000      -0.412723       -11.2308
 107   1.0000      -0.411105       -11.1867
 108   1.0000      -0.410104       -11.1595
 109   1.0000      -0.407049       -11.0764
 110   1.0000      -0.403970       -10.9926
 111   1.0000      -0.401880       -10.9357
 112   1.0000      -0.400456       -10.8970
 113   1.0000      -0.397521       -10.8171
 114   1.0000      -0.396954       -10.8017
 115   1.0000      -0.394189       -10.7264
 116   1.0000      -0.389464       -10.5978
 117   1.0000      -0.389111       -10.5883
 118   1.0000      -0.388580       -10.5738
 119   1.0000      -0.386491       -10.5169
 120   1.0000      -0.385353       -10.4860
 121   1.0000      -0.381724       -10.3872
 122   1.0000      -0.381523       -10.3818
 123   1.0000      -0.376471       -10.2443
 124   1.0000      -0.375637       -10.2216
 125   1.0000      -0.373594       -10.1660
 126   1.0000      -0.373048       -10.1512
 127   1.0000      -0.372230       -10.1289
 128   1.0000      -0.370599       -10.0845
 129   1.0000      -0.369649       -10.0587
 130   1.0000      -0.368146       -10.0178
 131   1.0000      -0.367973       -10.0130
 132   1.0000      -0.366482        -9.9725
 133   1.0000      -0.365779        -9.9533
 134   1.0000      -0.365232        -9.9385
 135   1.0000      -0.362460        -9.8630
 136   1.0000      -0.362017        -9.8510
 137   1.0000      -0.361116        -9.8265
 138   1.0000      -0.359637        -9.7862
 139   1.0000      -0.358073        -9.7437
 140   1.0000      -0.357659        -9.7324
 141   1.0000      -0.355044        -9.6612
 142   1.0000      -0.352206        -9.5840
 143   1.0000      -0.350099        -9.5267
 144   1.0000      -0.346455        -9.4275
 145   1.0000      -0.344483        -9.3739
 146   1.0000      -0.343999        -9.3607
 147   1.0000      -0.339662        -9.2427
 148   1.0000      -0.337671        -9.1885
 149   1.0000      -0.337552        -9.1853
 150   1.0000      -0.333268        -9.0687
 151   1.0000      -0.332840        -9.0570
 152   1.0000      -0.330909        -9.0045
 153   1.0000      -0.329666        -8.9707
 154   1.0000      -0.327541        -8.9129
 155   1.0000      -0.325783        -8.8650
 156   1.0000      -0.323833        -8.8120
 157   1.0000      -0.322116        -8.7652
 158   1.0000      -0.265005        -7.2111
 159   1.0000      -0.251153        -6.8342
 160   1.0000      -0.248877        -6.7723
 161   1.0000      -0.225293        -6.1305
 162   1.0000      -0.223654        -6.0859
 163   1.0000      -0.169806        -4.6207
 164   0.0000      -0.089123        -2.4252
 165   0.0000      -0.086542        -2.3549
 166   0.0000      -0.077204        -2.1008
 167   0.0000      -0.075975        -2.0674
 168   0.0000      -0.062273        -1.6945

MULLIKEN ATOMIC CHARGES AND SPIN POPULATIONS
--------------------------------------------
   0 Au:    0.328855   -0.102499
   1 Au:    0.322031   -0.069257
   2 Au:    0.139905   -0.235471
   3 Au:   -0.431595   -0.087729
   4 Au:    0.378953    0.026067
   5 Au:    0.226270   -0.018055
   6 Au:    0.419705    0.025905
   7 Au:    0.321996   -0.068815
   8 Au:    0.329733   -0.103194
   9 Au:   -0.433921   -0.086146
  10 Au:    0.521153   -0.056073
  11 Au:    0.278185   -0.548703
  12 Au:    0.377319    0.025965
  13 Au:   -0.175536    0.100265
  14 Au:    0.140412   -0.236168
  15 Au:   -0.867168    0.001655
  16 Fe:   -1.876297    3.432254
Sum of atomic charges         :   -0.0000000

LOEWDIN ATOMIC CHARGES AND SPIN POPULATIONS
-------------------------------------------
   0 Au:    0.091643   -0.104434
   1 Au:    0.064055   -0.083977
   2 Au:    0.012715   -0.141297
   3 Au:   -0.086081   -0.107548
   4 Au:    0.054813   -0.007377
   5 Au:    0.003296   -0.136951
   6 Au:    0.070396   -0.055921
   7 Au:    0.064399   -0.083967
   8 Au:    0.091927   -0.104466
   9 Au:   -0.086532   -0.107428
  10 Au:    0.112279   -0.025297
  11 Au:    0.041693   -0.352493
  12 Au:    0.054635   -0.007618
  13 Au:   -0.068574   -0.010854
  14 Au:    0.012939   -0.142134
  15 Au:   -0.144110   -0.036397
  16 Fe:   -0.289492    3.508159

  Mayer bond orders larger than 0.100000
B(  0-Au,  1-Au) :   0.1915 B(  0-Au,  3-Au) :   0.2044 B(  0-Au,  5-Au) :   0.1648
B(  0-Au, 16-Fe) :   0.4127 B(  1-Au,  2-Au) :   0.2424 B(  1-Au,  6-Au) :   0.1600
B(  1-Au,  7-Au) :   0.1590 B(  1-Au, 16-Fe) :   0.4262 B(  2-Au,  3-Au) :   0.2270
B(  2-Au,  4-Au) :   0.3107 B(  2-Au, 15-Au) :   0.1880 B(  2-Au, 16-Fe) :   0.3852
B(  3-Au,  4-Au) :   0.2877 B(  3-Au,  5-Au) :   0.2011 B(  3-Au,  9-Au) :   0.2015
B(  3-Au, 11-Au) :   0.2133 B(  3-Au, 13-Au) :   0.3171 B(  3-Au, 16-Fe) :   0.4245
B(  4-Au, 10-Au) :   0.1337 B(  4-Au, 13-Au) :   0.1514 B(  4-Au, 15-Au) :   0.2214
B(  5-Au,  8-Au) :   0.1654 B(  5-Au,  9-Au) :   0.2006 B(  5-Au, 11-Au) :   0.1943
B(  5-Au, 16-Fe) :   0.2960 B(  6-Au,  7-Au) :   0.1607 B(  6-Au, 15-Au) :   0.4227
B(  6-Au, 16-Fe) :   0.3512 B(  7-Au,  8-Au) :   0.1904 B(  7-Au, 14-Au) :   0.2410
B(  7-Au, 16-Fe) :   0.4264 B(  8-Au,  9-Au) :   0.2035 B(  8-Au, 16-Fe) :   0.4122
B(  9-Au, 11-Au) :   0.2159 B(  9-Au, 12-Au) :   0.2868 B(  9-Au, 13-Au) :   0.3183
B(  9-Au, 14-Au) :   0.2281 B(  9-Au, 16-Fe) :   0.4251 B( 10-Au, 12-Au) :   0.1341
B( 10-Au, 13-Au) :   0.2186 B( 10-Au, 15-Au) :   0.4012 B( 11-Au, 13-Au) :   0.2747
B( 12-Au, 13-Au) :   0.1513 B( 12-Au, 14-Au) :   0.3107 B( 12-Au, 15-Au) :   0.2231
B( 13-Au, 15-Au) :   0.2962 B( 14-Au, 15-Au) :   0.1843 B( 14-Au, 16-Fe) :   0.3862
B( 15-Au, 16-Fe) :   0.2913

MP2 TOTAL ENERGY:    -3432.934200372 Eh
FINAL SINGLE POINT ENERGY     -3432.934200371598

DIPOLE MOMENT
-------------
                                X             Y             Z
Electronic contribution:     12.64710      26.88636     -33.07524
Nuclear contribution   :    -13.17855     -27.02548      33.31843
                        -----------------------------------------
Total Dipole Moment    :     -0.53145      -0.13912       0.24319
                        -----------------------------------------
Magnitude (a.u.)       :      0.60078
Magnitude (Debye)      :      1.52706

Rotational constants in cm-1:     0.000973     0.000783     0.000700
Rotational constants in MHz :    29.169773    23.488234    20.979870

                             ****ORCA TERMINATED NORMALLY****
TOTAL RUN TIME: 0 days 0 hours 46 minutes 14 seconds 613 msec
