                         Program Version 5.0.3 -  RELEASE  -
|  1> !PBE def2-TZVP VERYSLOWCONV
|  2>
|  3> %scf
|  4>   AutoTRAHIter 200
|  5>   maxiter 400
|  6> end
|  7>
|  8>
|  9> %pal nprocs 6 end
| 10>
| 11> *xyzfile 0 5 pbe.xyz
| 12>
| 13> $new_job
| 14>
| 15> !PBE def2-TZVP KDIIS VERYSLOWCONV
| 16>
| 17> %scf
| 18>   AutoTRAHIter 400
| 19>   maxiter 800
| 20>   DIISMaxEq 15
| 21> end
| 22>
| 23>
| 24> %pal nprocs 6 end
| 25>
| 26> *xyzfile 0 3 pbe.xyz
| 27>
| 28>
| 29>
| 30>
| 31>
| 32>                          ****END OF INPUT****
 Total Charge           Charge          ....    0
 Multiplicity           Mult            ....    5
 Number of Electrons    NEL             ....  330
FINAL SINGLE POINT ENERGY     -3436.750882249935

CARTESIAN COORDINATES (ANGSTROEM)
---------------------------------
  Au     8.462613    8.150554    9.455856
  Au     5.787510    7.627012    9.654160
  Au     6.406256    9.991877    8.243397
  Au     9.021972    9.635580    7.145110
  Au     7.274901   11.505329    6.093720
  Au    10.096574    7.029278    7.508187
  Au     4.269827    7.953950    7.315767
  Au     5.508208    5.485356    7.813462
  Au     8.078563    5.209808    6.924530
  Au     8.702347    7.187217    5.035746
  Au     6.451647   11.026963    3.418750
  Au    11.030553    8.705975    5.415092
  Au     6.841113    8.218167    3.266013
  Au     8.860405    9.955025    4.297236
  Au     5.948490    6.442927    5.193031
  Au     5.603112    9.368692    5.474320
  Fe     7.052183    7.637247    7.261428

 Multiplicity           Mult            ....    3
 Number of Electrons    NEL             ....  330
 Basis Dimension        Dim             ....  685

ORBITAL ENERGIES
----------------
                 SPIN UP ORBITALS
  NO   OCC          E(Eh)            E(eV)
   0   1.0000    -254.735509     -6931.7056
   1   1.0000     -29.567956      -804.5850
   2   1.0000     -25.506546      -694.0684
   3   1.0000     -25.504771      -694.0201
   4   1.0000     -25.501084      -693.9198
   5   1.0000      -4.036575      -109.8408
   6   1.0000      -4.036537      -109.8398
   7   1.0000      -4.035605      -109.8144
   8   1.0000      -4.035523      -109.8122
   9   1.0000      -4.030342      -109.6712
  10   1.0000      -4.027028      -109.5810
  11   1.0000      -4.026928      -109.5783
  12   1.0000      -4.025827      -109.5483
  13   1.0000      -4.025793      -109.5474
  14   1.0000      -4.025281      -109.5335
  15   1.0000      -4.024542      -109.5133
  16   1.0000      -4.023471      -109.4842
  17   1.0000      -4.023468      -109.4841
  18   1.0000      -4.022037      -109.4452
  19   1.0000      -4.019354      -109.3722
  20   1.0000      -4.018503      -109.3490
  21   1.0000      -3.344048       -90.9962
  22   1.0000      -2.252069       -61.2819
  23   1.0000      -2.251924       -61.2780
  24   1.0000      -2.251658       -61.2707
  25   1.0000      -2.251584       -61.2687
  26   1.0000      -2.251274       -61.2603
  27   1.0000      -2.251209       -61.2585
  28   1.0000      -2.249381       -61.2088
  29   1.0000      -2.249271       -61.2058
  30   1.0000      -2.248278       -61.1788
  31   1.0000      -2.245988       -61.1164
  32   1.0000      -2.245371       -61.0996
  33   1.0000      -2.244741       -61.0825
  34   1.0000      -2.244398       -61.0732
  35   1.0000      -2.243046       -61.0364
  36   1.0000      -2.243035       -61.0361
  37   1.0000      -2.242797       -61.0296
  38   1.0000      -2.242677       -61.0264
  39   1.0000      -2.241597       -60.9970
  40   1.0000      -2.241330       -60.9897
  41   1.0000      -2.241271       -60.9881
  42   1.0000      -2.240132       -60.9571
  43   1.0000      -2.239584       -60.9422
  44   1.0000      -2.239099       -60.9290
  45   1.0000      -2.238844       -60.9220
  46   1.0000      -2.238832       -60.9217
  47   1.0000      -2.238527       -60.9134
  48   1.0000      -2.238198       -60.9045
  49   1.0000      -2.238021       -60.8997
  50   1.0000      -2.237499       -60.8854
  51   1.0000      -2.237152       -60.8760
  52   1.0000      -2.236771       -60.8656
  53   1.0000      -2.236525       -60.8589
  54   1.0000      -2.235986       -60.8443
  55   1.0000      -2.235860       -60.8409
  56   1.0000      -2.235250       -60.8242
  57   1.0000      -2.235000       -60.8174
  58   1.0000      -2.234789       -60.8117
  59   1.0000      -2.234733       -60.8102
  60   1.0000      -2.234542       -60.8050
  61   1.0000      -2.234421       -60.8017
  62   1.0000      -2.234186       -60.7953
  63   1.0000      -2.233882       -60.7870
  64   1.0000      -2.232471       -60.7486
  65   1.0000      -2.232223       -60.7419
  66   1.0000      -2.231214       -60.7144
  67   1.0000      -2.230333       -60.6904
  68   1.0000      -2.230236       -60.6878
  69   1.0000      -2.230126       -60.6848
  70   1.0000      -2.162910       -58.8558
  71   1.0000      -2.160696       -58.7955
  72   1.0000      -2.151778       -58.5529
  73   1.0000      -0.435432       -11.8487
  74   1.0000      -0.399411       -10.8685
  75   1.0000      -0.394681       -10.7398
  76   1.0000      -0.390602       -10.6288
  77   1.0000      -0.375795       -10.2259
  78   1.0000      -0.375169       -10.2089
  79   1.0000      -0.374884       -10.2011
  80   1.0000      -0.371829       -10.1180
  81   1.0000      -0.369388       -10.0516
  82   1.0000      -0.366329        -9.9683
  83   1.0000      -0.362739        -9.8706
  84   1.0000      -0.360514        -9.8101
  85   1.0000      -0.357337        -9.7236
  86   1.0000      -0.355525        -9.6743
  87   1.0000      -0.353647        -9.6232
  88   1.0000      -0.351155        -9.5554
  89   1.0000      -0.348668        -9.4877
  90   1.0000      -0.348633        -9.4868
  91   1.0000      -0.345618        -9.4047
  92   1.0000      -0.342406        -9.3174
  93   1.0000      -0.342167        -9.3108
  94   1.0000      -0.339038        -9.2257
  95   1.0000      -0.334971        -9.1150
  96   1.0000      -0.333938        -9.0869
  97   1.0000      -0.333503        -9.0751
  98   1.0000      -0.330303        -8.9880
  99   1.0000      -0.328808        -8.9473
 100   1.0000      -0.328745        -8.9456
 101   1.0000      -0.324384        -8.8269
 102   1.0000      -0.321119        -8.7381
 103   1.0000      -0.320936        -8.7331
 104   1.0000      -0.316408        -8.6099
 105   1.0000      -0.315096        -8.5742
 106   1.0000      -0.313370        -8.5272
 107   1.0000      -0.311125        -8.4661
 108   1.0000      -0.310207        -8.4412
 109   1.0000      -0.309639        -8.4257
 110   1.0000      -0.307660        -8.3719
 111   1.0000      -0.306893        -8.3510
 112   1.0000      -0.305474        -8.3124
 113   1.0000      -0.299516        -8.1502
 114   1.0000      -0.299366        -8.1462
 115   1.0000      -0.295423        -8.0389
 116   1.0000      -0.293938        -7.9984
 117   1.0000      -0.291498        -7.9321
 118   1.0000      -0.288184        -7.8419
 119   1.0000      -0.286940        -7.8080
 120   1.0000      -0.285828        -7.7778
 121   1.0000      -0.284651        -7.7458
 122   1.0000      -0.281615        -7.6631
 123   1.0000      -0.280980        -7.6459
 124   1.0000      -0.279159        -7.5963
 125   1.0000      -0.278171        -7.5694
 126   1.0000      -0.276189        -7.5155
 127   1.0000      -0.275989        -7.5100
 128   1.0000      -0.274437        -7.4678
 129   1.0000      -0.272970        -7.4279
 130   1.0000      -0.271695        -7.3932
 131   1.0000      -0.271622        -7.3912
 132   1.0000      -0.270069        -7.3490
 133   1.0000      -0.269978        -7.3465
 134   1.0000      -0.267446        -7.2776
 135   1.0000      -0.266824        -7.2607
 136   1.0000      -0.264500        -7.1974
 137   1.0000      -0.263908        -7.1813
 138   1.0000      -0.263761        -7.1773
 139   1.0000      -0.262942        -7.1550
 140   1.0000      -0.262116        -7.1325
 141   1.0000      -0.259919        -7.0728
 142   1.0000      -0.256817        -6.9883
 143   1.0000      -0.256255        -6.9731
 144   1.0000      -0.252945        -6.8830
 145   1.0000      -0.252329        -6.8662
 146   1.0000      -0.251621        -6.8470
 147   1.0000      -0.250989        -6.8298
 148   1.0000      -0.250326        -6.8117
 149   1.0000      -0.246922        -6.7191
 150   1.0000      -0.246260        -6.7011
 151   1.0000      -0.246116        -6.6972
 152   1.0000      -0.243520        -6.6265
 153   1.0000      -0.242044        -6.5863
 154   1.0000      -0.241815        -6.5801
 155   1.0000      -0.241482        -6.5711
 156   1.0000      -0.239178        -6.5084
 157   1.0000      -0.237646        -6.4667
 158   1.0000      -0.236120        -6.4251
 159   1.0000      -0.234486        -6.3807
 160   1.0000      -0.231254        -6.2927
 161   1.0000      -0.228145        -6.2081
 162   1.0000      -0.219500        -5.9729
 163   1.0000      -0.211623        -5.7586
 164   1.0000      -0.211378        -5.7519
 165   1.0000      -0.197143        -5.3645
 166   0.0000      -0.184887        -5.0310
 167   0.0000      -0.152254        -4.1430
 168   0.0000      -0.143192        -3.8965
 169   0.0000      -0.141876        -3.8606
 170   0.0000      -0.134661        -3.6643

                 SPIN DOWN ORBITALS
  NO   OCC          E(Eh)            E(eV)
   0   1.0000    -254.734917     -6931.6895
   1   1.0000     -29.515636      -803.1613
   2   1.0000     -25.466211      -692.9708
   3   1.0000     -25.465394      -692.9486
   4   1.0000     -25.462314      -692.8648
   5   1.0000      -4.036966      -109.8514
   6   1.0000      -4.036924      -109.8503
   7   1.0000      -4.035373      -109.8081
   8   1.0000      -4.035289      -109.8058
   9   1.0000      -4.030273      -109.6693
  10   1.0000      -4.026878      -109.5769
  11   1.0000      -4.026776      -109.5742
  12   1.0000      -4.025596      -109.5420
  13   1.0000      -4.025564      -109.5412
  14   1.0000      -4.025552      -109.5408
  15   1.0000      -4.025276      -109.5333
  16   1.0000      -4.023699      -109.4904
  17   1.0000      -4.023696      -109.4903
  18   1.0000      -4.022074      -109.4462
  19   1.0000      -4.020715      -109.4092
  20   1.0000      -4.018581      -109.3511
  21   1.0000      -3.225010       -87.7570
  22   1.0000      -2.252492       -61.2934
  23   1.0000      -2.252298       -61.2881
  24   1.0000      -2.251971       -61.2792
  25   1.0000      -2.251865       -61.2764
  26   1.0000      -2.250899       -61.2501
  27   1.0000      -2.250824       -61.2480
  28   1.0000      -2.249017       -61.1989
  29   1.0000      -2.248894       -61.1955
  30   1.0000      -2.248116       -61.1743
  31   1.0000      -2.246277       -61.1243
  32   1.0000      -2.245696       -61.1085
  33   1.0000      -2.244835       -61.0851
  34   1.0000      -2.244472       -61.0752
  35   1.0000      -2.243157       -61.0394
  36   1.0000      -2.242940       -61.0335
  37   1.0000      -2.242753       -61.0284
  38   1.0000      -2.242488       -61.0212
  39   1.0000      -2.241220       -60.9867
  40   1.0000      -2.240949       -60.9793
  41   1.0000      -2.240849       -60.9766
  42   1.0000      -2.239886       -60.9504
  43   1.0000      -2.239532       -60.9408
  44   1.0000      -2.239294       -60.9343
  45   1.0000      -2.239042       -60.9274
  46   1.0000      -2.238979       -60.9257
  47   1.0000      -2.238630       -60.9162
  48   1.0000      -2.238346       -60.9085
  49   1.0000      -2.238295       -60.9071
  50   1.0000      -2.237646       -60.8894
  51   1.0000      -2.237573       -60.8875
  52   1.0000      -2.236832       -60.8673
  53   1.0000      -2.236803       -60.8665
  54   1.0000      -2.236353       -60.8542
  55   1.0000      -2.236132       -60.8482
  56   1.0000      -2.235624       -60.8344
  57   1.0000      -2.235459       -60.8299
  58   1.0000      -2.235166       -60.8220
  59   1.0000      -2.234941       -60.8158
  60   1.0000      -2.234683       -60.8088
  61   1.0000      -2.234478       -60.8032
  62   1.0000      -2.234394       -60.8009
  63   1.0000      -2.234171       -60.7949
  64   1.0000      -2.232673       -60.7541
  65   1.0000      -2.232563       -60.7511
  66   1.0000      -2.232171       -60.7405
  67   1.0000      -2.232095       -60.7384
  68   1.0000      -2.230390       -60.6920
  69   1.0000      -2.230233       -60.6877
  70   1.0000      -2.044866       -55.6436
  71   1.0000      -2.043504       -55.6066
  72   1.0000      -2.037032       -55.4305
  73   1.0000      -0.433369       -11.7926
  74   1.0000      -0.398551       -10.8451
  75   1.0000      -0.394801       -10.7431
  76   1.0000      -0.391435       -10.6515
  77   1.0000      -0.375279       -10.2119
  78   1.0000      -0.373431       -10.1616
  79   1.0000      -0.371866       -10.1190
  80   1.0000      -0.370769       -10.0891
  81   1.0000      -0.368014       -10.0142
  82   1.0000      -0.365848        -9.9552
  83   1.0000      -0.361987        -9.8502
  84   1.0000      -0.360197        -9.8015
  85   1.0000      -0.356339        -9.6965
  86   1.0000      -0.355391        -9.6707
  87   1.0000      -0.351721        -9.5708
  88   1.0000      -0.351001        -9.5512
  89   1.0000      -0.348926        -9.4948
  90   1.0000      -0.348132        -9.4731
  91   1.0000      -0.343387        -9.3440
  92   1.0000      -0.341479        -9.2921
  93   1.0000      -0.340603        -9.2683
  94   1.0000      -0.338965        -9.2237
  95   1.0000      -0.334402        -9.0995
  96   1.0000      -0.334300        -9.0968
  97   1.0000      -0.332530        -9.0486
  98   1.0000      -0.330539        -8.9944
  99   1.0000      -0.329516        -8.9666
 100   1.0000      -0.328827        -8.9478
 101   1.0000      -0.323886        -8.8134
 102   1.0000      -0.321054        -8.7363
 103   1.0000      -0.320949        -8.7335
 104   1.0000      -0.316831        -8.6214
 105   1.0000      -0.313309        -8.5256
 106   1.0000      -0.313035        -8.5181
 107   1.0000      -0.311200        -8.4682
 108   1.0000      -0.311014        -8.4631
 109   1.0000      -0.307461        -8.3664
 110   1.0000      -0.306015        -8.3271
 111   1.0000      -0.302524        -8.2321
 112   1.0000      -0.301657        -8.2085
 113   1.0000      -0.298259        -8.1160
 114   1.0000      -0.297431        -8.0935
 115   1.0000      -0.293670        -7.9912
 116   1.0000      -0.293011        -7.9732
 117   1.0000      -0.290412        -7.9025
 118   1.0000      -0.288373        -7.8470
 119   1.0000      -0.287305        -7.8180
 120   1.0000      -0.285739        -7.7753
 121   1.0000      -0.283454        -7.7132
 122   1.0000      -0.281990        -7.6733
 123   1.0000      -0.281573        -7.6620
 124   1.0000      -0.278774        -7.5858
 125   1.0000      -0.277941        -7.5632
 126   1.0000      -0.275942        -7.5088
 127   1.0000      -0.274734        -7.4759
 128   1.0000      -0.273797        -7.4504
 129   1.0000      -0.272661        -7.4195
 130   1.0000      -0.271369        -7.3843
 131   1.0000      -0.270866        -7.3706
 132   1.0000      -0.270573        -7.3627
 133   1.0000      -0.270321        -7.3558
 134   1.0000      -0.267917        -7.2904
 135   1.0000      -0.267208        -7.2711
 136   1.0000      -0.264794        -7.2054
 137   1.0000      -0.264731        -7.2037
 138   1.0000      -0.263789        -7.1781
 139   1.0000      -0.263690        -7.1754
 140   1.0000      -0.262401        -7.1403
 141   1.0000      -0.260172        -7.0796
 142   1.0000      -0.256693        -6.9850
 143   1.0000      -0.256012        -6.9664
 144   1.0000      -0.252446        -6.8694
 145   1.0000      -0.251986        -6.8569
 146   1.0000      -0.251853        -6.8533
 147   1.0000      -0.251265        -6.8373
 148   1.0000      -0.250578        -6.8186
 149   1.0000      -0.247230        -6.7275
 150   1.0000      -0.246005        -6.6941
 151   1.0000      -0.243390        -6.6230
 152   1.0000      -0.243326        -6.6212
 153   1.0000      -0.242428        -6.5968
 154   1.0000      -0.241349        -6.5674
 155   1.0000      -0.238419        -6.4877
 156   1.0000      -0.237879        -6.4730
 157   1.0000      -0.225966        -6.1488
 158   1.0000      -0.219061        -5.9609
 159   1.0000      -0.217721        -5.9245
 160   1.0000      -0.203832        -5.5466
 161   1.0000      -0.200131        -5.4458
 162   1.0000      -0.175088        -4.7644
 163   1.0000      -0.170282        -4.6336
 164   0.0000      -0.154567        -4.2060
 165   0.0000      -0.151627        -4.1260
 166   0.0000      -0.145241        -3.9522
 167   0.0000      -0.143108        -3.8942
 168   0.0000      -0.139701        -3.8015

MULLIKEN ATOMIC CHARGES AND SPIN POPULATIONS
--------------------------------------------
   0 Au:    0.375118   -0.038328
   1 Au:    0.361875   -0.041414
   2 Au:    0.195972   -0.074114
   3 Au:   -0.457164   -0.110248
   4 Au:    0.389523    0.030553
   5 Au:    0.257388   -0.027922
   6 Au:    0.422088    0.009783
   7 Au:    0.361692   -0.041339
   8 Au:    0.375849   -0.039106
   9 Au:   -0.459013   -0.110019
  10 Au:    0.546664   -0.068060
  11 Au:    0.406424   -0.208040
  12 Au:    0.387790    0.030441
  13 Au:   -0.210165    0.004944
  14 Au:    0.197401   -0.073641
  15 Au:   -0.859052   -0.003331
  16 Fe:   -2.292391    2.759841
Sum of atomic charges         :    0.0000000

LOEWDIN ATOMIC CHARGES AND SPIN POPULATIONS
-------------------------------------------
   0 Au:    0.116318   -0.054537
   1 Au:    0.083033   -0.047835
   2 Au:    0.067307   -0.049440
   3 Au:   -0.063049   -0.069549
   4 Au:    0.052214   -0.000152
   5 Au:    0.018258   -0.091308
   6 Au:    0.081886   -0.037966
   7 Au:    0.083254   -0.047847
   8 Au:    0.116394   -0.054824
   9 Au:   -0.063494   -0.069720
  10 Au:    0.085632   -0.036655
  11 Au:    0.109941   -0.172377
  12 Au:    0.052150   -0.000315
  13 Au:   -0.080133   -0.024292
  14 Au:    0.067800   -0.049561
  15 Au:   -0.107737   -0.015884
  16 Fe:   -0.619775    2.822264

  Mayer bond orders larger than 0.100000
B(  0-Au,  1-Au) :   0.2232 B(  0-Au,  3-Au) :   0.2286 B(  0-Au,  5-Au) :   0.2031
B(  0-Au, 16-Fe) :   0.4759 B(  1-Au,  2-Au) :   0.2500 B(  1-Au,  6-Au) :   0.1921
B(  1-Au,  7-Au) :   0.1875 B(  1-Au, 16-Fe) :   0.4635 B(  2-Au,  3-Au) :   0.2463
B(  2-Au,  4-Au) :   0.3420 B(  2-Au, 15-Au) :   0.2061 B(  2-Au, 16-Fe) :   0.4613
B(  3-Au,  4-Au) :   0.3266 B(  3-Au,  5-Au) :   0.2158 B(  3-Au,  9-Au) :   0.1784
B(  3-Au, 11-Au) :   0.2703 B(  3-Au, 13-Au) :   0.3140 B(  3-Au, 16-Fe) :   0.4437
B(  4-Au, 10-Au) :   0.1812 B(  4-Au, 13-Au) :   0.1815 B(  4-Au, 15-Au) :   0.2406
B(  5-Au,  8-Au) :   0.2034 B(  5-Au,  9-Au) :   0.2153 B(  5-Au, 11-Au) :   0.2362
B(  5-Au, 16-Fe) :   0.2722 B(  6-Au,  7-Au) :   0.1928 B(  6-Au, 15-Au) :   0.4613
B(  6-Au, 16-Fe) :   0.3166 B(  7-Au,  8-Au) :   0.2226 B(  7-Au, 14-Au) :   0.2484
B(  7-Au, 16-Fe) :   0.4643 B(  8-Au,  9-Au) :   0.2275 B(  8-Au, 16-Fe) :   0.4759
B(  9-Au, 11-Au) :   0.2735 B(  9-Au, 12-Au) :   0.3257 B(  9-Au, 13-Au) :   0.3148
B(  9-Au, 14-Au) :   0.2481 B(  9-Au, 16-Fe) :   0.4440 B( 10-Au, 12-Au) :   0.1814
B( 10-Au, 13-Au) :   0.2578 B( 10-Au, 15-Au) :   0.3896 B( 11-Au, 13-Au) :   0.4149
B( 11-Au, 16-Fe) :   0.1237 B( 12-Au, 13-Au) :   0.1812 B( 12-Au, 14-Au) :   0.3421
B( 12-Au, 15-Au) :   0.2422 B( 13-Au, 15-Au) :   0.2510 B( 14-Au, 15-Au) :   0.2024
B( 14-Au, 16-Fe) :   0.4622 B( 15-Au, 16-Fe) :   0.3736

FINAL SINGLE POINT ENERGY     -3436.735303640244

DIPOLE MOMENT
-------------
                                X             Y             Z
Electronic contribution:     13.10653      26.89270     -33.15253
Nuclear contribution   :    -13.17855     -27.02548      33.31843
                        -----------------------------------------
Total Dipole Moment    :     -0.07202      -0.13278       0.16590
                        -----------------------------------------
Magnitude (a.u.)       :      0.22437
Magnitude (Debye)      :      0.57030

Rotational constants in cm-1:     0.000973     0.000783     0.000700
Rotational constants in MHz :    29.169773    23.488234    20.979870

                             ****ORCA TERMINATED NORMALLY****
TOTAL RUN TIME: 0 days 0 hours 12 minutes 18 seconds 167 msec
