                         Program Version 5.0.3 -  RELEASE  -
|  1> !R2SCAN def2-TZVP VERYSLOWCONV
|  2>
|  3> %scf
|  4>   AutoTRAHIter 200
|  5>   maxiter 400
|  6> end
|  7>
|  8> %pal nprocs 6 end
|  9>
| 10> *xyzfile 0 5 pbe.xyz
| 11>
| 12> $new_job
| 13>
| 14> !R2SCAN def2-TZVP SLOWCONV
| 15> %scf
| 16>   AutoTRAHIter 800
| 17>   maxiter 1000
| 18> end
| 19>
| 20>
| 21> %pal nprocs 6 end
| 22>
| 23> *xyzfile 0 3 pbe.xyz
| 24>
| 25>
| 26>
| 27>
| 28>
| 29>                          ****END OF INPUT****
 Total Charge           Charge          ....    0
 Multiplicity           Mult            ....    5
 Number of Electrons    NEL             ....  330
FINAL SINGLE POINT ENERGY     -3437.290911762710

CARTESIAN COORDINATES (ANGSTROEM)
---------------------------------
  Au     8.462613    8.150554    9.455856
  Au     5.787510    7.627012    9.654160
  Au     6.406256    9.991877    8.243397
  Au     9.021972    9.635580    7.145110
  Au     7.274901   11.505329    6.093720
  Au    10.096574    7.029278    7.508187
  Au     4.269827    7.953950    7.315767
  Au     5.508208    5.485356    7.813462
  Au     8.078563    5.209808    6.924530
  Au     8.702347    7.187217    5.035746
  Au     6.451647   11.026963    3.418750
  Au    11.030553    8.705975    5.415092
  Au     6.841113    8.218167    3.266013
  Au     8.860405    9.955025    4.297236
  Au     5.948490    6.442927    5.193031
  Au     5.603112    9.368692    5.474320
  Fe     7.052183    7.637247    7.261428

 Multiplicity           Mult            ....    3
 Number of Electrons    NEL             ....  330
 Basis Dimension        Dim             ....  685

ORBITAL ENERGIES
----------------
                 SPIN UP ORBITALS
  NO   OCC          E(Eh)            E(eV)
   0   1.0000    -255.612448     -6955.5683
   1   1.0000     -29.904384      -813.7397
   2   1.0000     -25.737890      -700.3636
   3   1.0000     -25.736341      -700.3214
   4   1.0000     -25.732538      -700.2179
   5   1.0000      -4.127361      -112.3112
   6   1.0000      -4.127292      -112.3093
   7   1.0000      -4.126543      -112.2889
   8   1.0000      -4.126490      -112.2875
   9   1.0000      -4.121061      -112.1398
  10   1.0000      -4.117788      -112.0507
  11   1.0000      -4.117678      -112.0477
  12   1.0000      -4.116519      -112.0162
  13   1.0000      -4.116464      -112.0147
  14   1.0000      -4.115935      -112.0003
  15   1.0000      -4.114833      -111.9703
  16   1.0000      -4.114137      -111.9514
  17   1.0000      -4.114124      -111.9510
  18   1.0000      -4.112774      -111.9143
  19   1.0000      -4.109593      -111.8277
  20   1.0000      -4.109053      -111.8130
  21   1.0000      -3.482147       -94.7540
  22   1.0000      -2.315549       -63.0093
  23   1.0000      -2.315403       -63.0053
  24   1.0000      -2.315334       -63.0035
  25   1.0000      -2.315307       -63.0027
  26   1.0000      -2.314952       -62.9931
  27   1.0000      -2.314920       -62.9922
  28   1.0000      -2.313038       -62.9410
  29   1.0000      -2.312935       -62.9382
  30   1.0000      -2.311722       -62.9052
  31   1.0000      -2.309951       -62.8570
  32   1.0000      -2.309305       -62.8394
  33   1.0000      -2.308549       -62.8188
  34   1.0000      -2.308253       -62.8108
  35   1.0000      -2.306649       -62.7671
  36   1.0000      -2.306553       -62.7645
  37   1.0000      -2.306319       -62.7581
  38   1.0000      -2.305987       -62.7491
  39   1.0000      -2.305235       -62.7286
  40   1.0000      -2.304828       -62.7176
  41   1.0000      -2.304777       -62.7162
  42   1.0000      -2.303662       -62.6858
  43   1.0000      -2.302967       -62.6669
  44   1.0000      -2.302572       -62.6562
  45   1.0000      -2.302496       -62.6541
  46   1.0000      -2.302156       -62.6448
  47   1.0000      -2.301901       -62.6379
  48   1.0000      -2.301684       -62.6320
  49   1.0000      -2.301377       -62.6237
  50   1.0000      -2.300610       -62.6028
  51   1.0000      -2.300541       -62.6009
  52   1.0000      -2.299961       -62.5851
  53   1.0000      -2.299895       -62.5833
  54   1.0000      -2.299466       -62.5716
  55   1.0000      -2.299126       -62.5624
  56   1.0000      -2.298617       -62.5486
  57   1.0000      -2.298494       -62.5452
  58   1.0000      -2.298255       -62.5387
  59   1.0000      -2.298200       -62.5372
  60   1.0000      -2.298095       -62.5343
  61   1.0000      -2.297899       -62.5290
  62   1.0000      -2.297636       -62.5219
  63   1.0000      -2.297013       -62.5049
  64   1.0000      -2.295760       -62.4708
  65   1.0000      -2.295705       -62.4693
  66   1.0000      -2.294270       -62.4303
  67   1.0000      -2.293501       -62.4093
  68   1.0000      -2.293413       -62.4069
  69   1.0000      -2.293272       -62.4031
  70   1.0000      -2.252357       -61.2898
  71   1.0000      -2.250571       -61.2411
  72   1.0000      -2.240972       -60.9800
  73   1.0000      -0.440058       -11.9746
  74   1.0000      -0.404808       -11.0154
  75   1.0000      -0.400475       -10.8975
  76   1.0000      -0.396297       -10.7838
  77   1.0000      -0.385631       -10.4935
  78   1.0000      -0.384328       -10.4581
  79   1.0000      -0.383355       -10.4316
  80   1.0000      -0.379860       -10.3365
  81   1.0000      -0.378554       -10.3010
  82   1.0000      -0.374751       -10.1975
  83   1.0000      -0.371807       -10.1174
  84   1.0000      -0.369376       -10.0512
  85   1.0000      -0.367142        -9.9904
  86   1.0000      -0.364822        -9.9273
  87   1.0000      -0.362712        -9.8699
  88   1.0000      -0.360349        -9.8056
  89   1.0000      -0.357995        -9.7415
  90   1.0000      -0.357751        -9.7349
  91   1.0000      -0.355598        -9.6763
  92   1.0000      -0.351907        -9.5759
  93   1.0000      -0.351383        -9.5616
  94   1.0000      -0.348353        -9.4792
  95   1.0000      -0.344259        -9.3678
  96   1.0000      -0.342904        -9.3309
  97   1.0000      -0.342531        -9.3207
  98   1.0000      -0.339273        -9.2321
  99   1.0000      -0.337822        -9.1926
 100   1.0000      -0.337681        -9.1888
 101   1.0000      -0.333624        -9.0784
 102   1.0000      -0.330344        -8.9891
 103   1.0000      -0.329613        -8.9692
 104   1.0000      -0.325076        -8.8458
 105   1.0000      -0.324721        -8.8361
 106   1.0000      -0.322439        -8.7740
 107   1.0000      -0.319638        -8.6978
 108   1.0000      -0.318797        -8.6749
 109   1.0000      -0.318706        -8.6724
 110   1.0000      -0.317669        -8.6442
 111   1.0000      -0.315628        -8.5887
 112   1.0000      -0.313828        -8.5397
 113   1.0000      -0.308795        -8.4027
 114   1.0000      -0.308712        -8.4005
 115   1.0000      -0.304208        -8.2779
 116   1.0000      -0.301971        -8.2170
 117   1.0000      -0.300001        -8.1634
 118   1.0000      -0.296898        -8.0790
 119   1.0000      -0.295516        -8.0414
 120   1.0000      -0.294641        -8.0176
 121   1.0000      -0.293865        -7.9965
 122   1.0000      -0.290182        -7.8963
 123   1.0000      -0.288605        -7.8533
 124   1.0000      -0.287776        -7.8308
 125   1.0000      -0.286642        -7.7999
 126   1.0000      -0.284654        -7.7458
 127   1.0000      -0.284563        -7.7434
 128   1.0000      -0.282767        -7.6945
 129   1.0000      -0.281197        -7.6518
 130   1.0000      -0.280002        -7.6192
 131   1.0000      -0.279775        -7.6131
 132   1.0000      -0.278282        -7.5724
 133   1.0000      -0.278229        -7.5710
 134   1.0000      -0.275648        -7.5008
 135   1.0000      -0.274985        -7.4827
 136   1.0000      -0.272720        -7.4211
 137   1.0000      -0.272233        -7.4078
 138   1.0000      -0.271913        -7.3991
 139   1.0000      -0.270841        -7.3700
 140   1.0000      -0.270298        -7.3552
 141   1.0000      -0.268093        -7.2952
 142   1.0000      -0.264835        -7.2065
 143   1.0000      -0.264611        -7.2004
 144   1.0000      -0.262725        -7.1491
 145   1.0000      -0.260782        -7.0963
 146   1.0000      -0.258584        -7.0364
 147   1.0000      -0.258458        -7.0330
 148   1.0000      -0.258138        -7.0243
 149   1.0000      -0.255974        -6.9654
 150   1.0000      -0.255681        -6.9574
 151   1.0000      -0.253882        -6.9085
 152   1.0000      -0.252128        -6.8607
 153   1.0000      -0.249462        -6.7882
 154   1.0000      -0.248479        -6.7615
 155   1.0000      -0.248043        -6.7496
 156   1.0000      -0.247081        -6.7234
 157   1.0000      -0.245954        -6.6928
 158   1.0000      -0.244281        -6.6472
 159   1.0000      -0.243097        -6.6150
 160   1.0000      -0.241841        -6.5808
 161   1.0000      -0.239923        -6.5286
 162   1.0000      -0.222882        -6.0649
 163   1.0000      -0.215068        -5.8523
 164   1.0000      -0.214898        -5.8477
 165   1.0000      -0.198340        -5.3971
 166   0.0000      -0.183453        -4.9920
 167   0.0000      -0.147873        -4.0238
 168   0.0000      -0.139859        -3.8058
 169   0.0000      -0.138526        -3.7695
 170   0.0000      -0.130868        -3.5611

                 SPIN DOWN ORBITALS
  NO   OCC          E(Eh)            E(eV)
   0   1.0000    -255.611562     -6955.5442
   1   1.0000     -29.832943      -811.7956
   2   1.0000     -25.682338      -698.8519
   3   1.0000     -25.681591      -698.8316
   4   1.0000     -25.679399      -698.7720
   5   1.0000      -4.128094      -112.3312
   6   1.0000      -4.128020      -112.3291
   7   1.0000      -4.126455      -112.2865
   8   1.0000      -4.126398      -112.2850
   9   1.0000      -4.121028      -112.1389
  10   1.0000      -4.117771      -112.0503
  11   1.0000      -4.117660      -112.0472
  12   1.0000      -4.116400      -112.0129
  13   1.0000      -4.116344      -112.0114
  14   1.0000      -4.116249      -112.0088
  15   1.0000      -4.115735      -111.9948
  16   1.0000      -4.114371      -111.9577
  17   1.0000      -4.114355      -111.9573
  18   1.0000      -4.112904      -111.9178
  19   1.0000      -4.111400      -111.8769
  20   1.0000      -4.109228      -111.8178
  21   1.0000      -3.321902       -90.3936
  22   1.0000      -2.316434       -63.0334
  23   1.0000      -2.316198       -63.0269
  24   1.0000      -2.315676       -63.0128
  25   1.0000      -2.315568       -63.0098
  26   1.0000      -2.314492       -62.9805
  27   1.0000      -2.314439       -62.9791
  28   1.0000      -2.312897       -62.9371
  29   1.0000      -2.312807       -62.9347
  30   1.0000      -2.311621       -62.9024
  31   1.0000      -2.310380       -62.8686
  32   1.0000      -2.309791       -62.8526
  33   1.0000      -2.308779       -62.8251
  34   1.0000      -2.308442       -62.8159
  35   1.0000      -2.306577       -62.7652
  36   1.0000      -2.306444       -62.7615
  37   1.0000      -2.306399       -62.7603
  38   1.0000      -2.306134       -62.7531
  39   1.0000      -2.304926       -62.7202
  40   1.0000      -2.304383       -62.7054
  41   1.0000      -2.304308       -62.7034
  42   1.0000      -2.303455       -62.6802
  43   1.0000      -2.303032       -62.6687
  44   1.0000      -2.302729       -62.6604
  45   1.0000      -2.302573       -62.6562
  46   1.0000      -2.302445       -62.6527
  47   1.0000      -2.302165       -62.6451
  48   1.0000      -2.301814       -62.6355
  49   1.0000      -2.301728       -62.6332
  50   1.0000      -2.300967       -62.6125
  51   1.0000      -2.300806       -62.6081
  52   1.0000      -2.300263       -62.5933
  53   1.0000      -2.300160       -62.5905
  54   1.0000      -2.299884       -62.5830
  55   1.0000      -2.299699       -62.5780
  56   1.0000      -2.299022       -62.5596
  57   1.0000      -2.298882       -62.5558
  58   1.0000      -2.298705       -62.5509
  59   1.0000      -2.298492       -62.5451
  60   1.0000      -2.298213       -62.5376
  61   1.0000      -2.298085       -62.5341
  62   1.0000      -2.297968       -62.5309
  63   1.0000      -2.297846       -62.5276
  64   1.0000      -2.296287       -62.4851
  65   1.0000      -2.295907       -62.4748
  66   1.0000      -2.295498       -62.4637
  67   1.0000      -2.295459       -62.4626
  68   1.0000      -2.293694       -62.4146
  69   1.0000      -2.293560       -62.4109
  70   1.0000      -2.093939       -56.9790
  71   1.0000      -2.091896       -56.9234
  72   1.0000      -2.086514       -56.7769
  73   1.0000      -0.438692       -11.9374
  74   1.0000      -0.404580       -11.0092
  75   1.0000      -0.400804       -10.9064
  76   1.0000      -0.397825       -10.8254
  77   1.0000      -0.384003       -10.4493
  78   1.0000      -0.382038       -10.3958
  79   1.0000      -0.379998       -10.3403
  80   1.0000      -0.378888       -10.3101
  81   1.0000      -0.376561       -10.2467
  82   1.0000      -0.374394       -10.1878
  83   1.0000      -0.371072       -10.0974
  84   1.0000      -0.368939       -10.0393
  85   1.0000      -0.365623        -9.9491
  86   1.0000      -0.364509        -9.9188
  87   1.0000      -0.360855        -9.8194
  88   1.0000      -0.360315        -9.8047
  89   1.0000      -0.358294        -9.7497
  90   1.0000      -0.357453        -9.7268
  91   1.0000      -0.352348        -9.5879
  92   1.0000      -0.350505        -9.5377
  93   1.0000      -0.349791        -9.5183
  94   1.0000      -0.348310        -9.4780
  95   1.0000      -0.343914        -9.3584
  96   1.0000      -0.343514        -9.3475
  97   1.0000      -0.341368        -9.2891
  98   1.0000      -0.339675        -9.2430
  99   1.0000      -0.338856        -9.2207
 100   1.0000      -0.337892        -9.1945
 101   1.0000      -0.332978        -9.0608
 102   1.0000      -0.329978        -8.9792
 103   1.0000      -0.329656        -8.9704
 104   1.0000      -0.325188        -8.8488
 105   1.0000      -0.322102        -8.7648
 106   1.0000      -0.321860        -8.7583
 107   1.0000      -0.320213        -8.7134
 108   1.0000      -0.319782        -8.7017
 109   1.0000      -0.316169        -8.6034
 110   1.0000      -0.314347        -8.5538
 111   1.0000      -0.310661        -8.4535
 112   1.0000      -0.310486        -8.4487
 113   1.0000      -0.306644        -8.3442
 114   1.0000      -0.305966        -8.3258
 115   1.0000      -0.302288        -8.2257
 116   1.0000      -0.300771        -8.1844
 117   1.0000      -0.298625        -8.1260
 118   1.0000      -0.297043        -8.0830
 119   1.0000      -0.295846        -8.0504
 120   1.0000      -0.294497        -8.0137
 121   1.0000      -0.292191        -7.9509
 122   1.0000      -0.290589        -7.9073
 123   1.0000      -0.289398        -7.8749
 124   1.0000      -0.287476        -7.8226
 125   1.0000      -0.286191        -7.7877
 126   1.0000      -0.284310        -7.7365
 127   1.0000      -0.283111        -7.7038
 128   1.0000      -0.281969        -7.6728
 129   1.0000      -0.280734        -7.6392
 130   1.0000      -0.279444        -7.6041
 131   1.0000      -0.279257        -7.5990
 132   1.0000      -0.278937        -7.5903
 133   1.0000      -0.278246        -7.5715
 134   1.0000      -0.276202        -7.5158
 135   1.0000      -0.275538        -7.4978
 136   1.0000      -0.273254        -7.4356
 137   1.0000      -0.273082        -7.4309
 138   1.0000      -0.272051        -7.4029
 139   1.0000      -0.271909        -7.3990
 140   1.0000      -0.270692        -7.3659
 141   1.0000      -0.268235        -7.2991
 142   1.0000      -0.264147        -7.1878
 143   1.0000      -0.264037        -7.1848
 144   1.0000      -0.259710        -7.0671
 145   1.0000      -0.259501        -7.0614
 146   1.0000      -0.259425        -7.0593
 147   1.0000      -0.258754        -7.0411
 148   1.0000      -0.258251        -7.0274
 149   1.0000      -0.254096        -6.9143
 150   1.0000      -0.253295        -6.8925
 151   1.0000      -0.250466        -6.8155
 152   1.0000      -0.250333        -6.8119
 153   1.0000      -0.249489        -6.7889
 154   1.0000      -0.248455        -6.7608
 155   1.0000      -0.245226        -6.6729
 156   1.0000      -0.244774        -6.6606
 157   1.0000      -0.229644        -6.2489
 158   1.0000      -0.221859        -6.0371
 159   1.0000      -0.220228        -5.9927
 160   1.0000      -0.205262        -5.5855
 161   1.0000      -0.200544        -5.4571
 162   1.0000      -0.176861        -4.8126
 163   1.0000      -0.169862        -4.6222
 164   0.0000      -0.148031        -4.0281
 165   0.0000      -0.147906        -4.0247
 166   0.0000      -0.136974        -3.7273
 167   0.0000      -0.136243        -3.7074
 168   0.0000      -0.127971        -3.4823

MULLIKEN ATOMIC CHARGES AND SPIN POPULATIONS
--------------------------------------------
   0 Au:    0.342681   -0.052682
   1 Au:    0.325326   -0.056972
   2 Au:    0.180899   -0.094564
   3 Au:   -0.420884   -0.120072
   4 Au:    0.365036    0.031753
   5 Au:    0.222344   -0.029065
   6 Au:    0.384156    0.009637
   7 Au:    0.325034   -0.056805
   8 Au:    0.343552   -0.053602
   9 Au:   -0.422579   -0.119462
  10 Au:    0.492311   -0.082093
  11 Au:    0.374111   -0.253648
  12 Au:    0.363500    0.031665
  13 Au:   -0.192670    0.019377
  14 Au:    0.182216   -0.093986
  15 Au:   -0.787504    0.003785
  16 Fe:   -2.077529    2.916734
Sum of atomic charges         :   -0.0000000

LOEWDIN ATOMIC CHARGES AND SPIN POPULATIONS
-------------------------------------------
   0 Au:    0.109780   -0.065435
   1 Au:    0.076875   -0.057981
   2 Au:    0.062389   -0.061310
   3 Au:   -0.064593   -0.081852
   4 Au:    0.051328   -0.000961
   5 Au:    0.011805   -0.102113
   6 Au:    0.075918   -0.043636
   7 Au:    0.077104   -0.058003
   8 Au:    0.109911   -0.065707
   9 Au:   -0.065018   -0.081900
  10 Au:    0.082422   -0.041836
  11 Au:    0.104961   -0.195408
  12 Au:    0.051263   -0.001118
  13 Au:   -0.077944   -0.023425
  14 Au:    0.062910   -0.061410
  15 Au:   -0.109784   -0.018369
  16 Fe:   -0.559327    2.960464

  Mayer bond orders larger than 0.100000
B(  0-Au,  1-Au) :   0.2200 B(  0-Au,  3-Au) :   0.2236 B(  0-Au,  5-Au) :   0.1952
B(  0-Au, 16-Fe) :   0.4675 B(  1-Au,  2-Au) :   0.2429 B(  1-Au,  6-Au) :   0.1762
B(  1-Au,  7-Au) :   0.1778 B(  1-Au, 16-Fe) :   0.4467 B(  2-Au,  3-Au) :   0.2396
B(  2-Au,  4-Au) :   0.3390 B(  2-Au, 15-Au) :   0.1880 B(  2-Au, 16-Fe) :   0.4503
B(  3-Au,  4-Au) :   0.3273 B(  3-Au,  5-Au) :   0.2037 B(  3-Au,  9-Au) :   0.1468
B(  3-Au, 11-Au) :   0.2567 B(  3-Au, 13-Au) :   0.2979 B(  3-Au, 16-Fe) :   0.4237
B(  4-Au, 10-Au) :   0.1642 B(  4-Au, 13-Au) :   0.1688 B(  4-Au, 15-Au) :   0.2277
B(  5-Au,  8-Au) :   0.1956 B(  5-Au,  9-Au) :   0.2032 B(  5-Au, 11-Au) :   0.2212
B(  5-Au, 16-Fe) :   0.2565 B(  6-Au,  7-Au) :   0.1770 B(  6-Au, 15-Au) :   0.4727
B(  6-Au, 16-Fe) :   0.3021 B(  7-Au,  8-Au) :   0.2193 B(  7-Au, 14-Au) :   0.2414
B(  7-Au, 16-Fe) :   0.4474 B(  8-Au,  9-Au) :   0.2225 B(  8-Au, 16-Fe) :   0.4676
B(  9-Au, 11-Au) :   0.2599 B(  9-Au, 12-Au) :   0.3261 B(  9-Au, 13-Au) :   0.2986
B(  9-Au, 14-Au) :   0.2416 B(  9-Au, 16-Fe) :   0.4244 B( 10-Au, 12-Au) :   0.1646
B( 10-Au, 13-Au) :   0.2605 B( 10-Au, 15-Au) :   0.4031 B( 11-Au, 13-Au) :   0.4075
B( 11-Au, 16-Fe) :   0.1120 B( 12-Au, 13-Au) :   0.1684 B( 12-Au, 14-Au) :   0.3392
B( 12-Au, 15-Au) :   0.2293 B( 13-Au, 15-Au) :   0.2189 B( 14-Au, 15-Au) :   0.1843
B( 14-Au, 16-Fe) :   0.4514 B( 15-Au, 16-Fe) :   0.3595

FINAL SINGLE POINT ENERGY     -3437.271505765048

DIPOLE MOMENT
-------------
                                X             Y             Z
Electronic contribution:     13.08256      26.90483     -33.16347
Nuclear contribution   :    -13.17855     -27.02548      33.31843
                        -----------------------------------------
Total Dipole Moment    :     -0.09598      -0.12064       0.15496
                        -----------------------------------------
Magnitude (a.u.)       :      0.21859
Magnitude (Debye)      :      0.55561

Rotational constants in cm-1:     0.000973     0.000783     0.000700
Rotational constants in MHz :    29.169773    23.488234    20.979870

                             ****ORCA TERMINATED NORMALLY****
TOTAL RUN TIME: 0 days 0 hours 35 minutes 18 seconds 431 msec
