                         Program Version 5.0.3 -  RELEASE  -
|  1> %pal nprocs 1 end
|  2>
|  3> !PBE def2-TZVP OPT UNO
|  4> !SLOWCONV KDIIS
|  5>
|  6> %geom maxiter 300 end
|  7>
|  8> *xyzfile 0 5 8.xyz                           ****END OF INPUT****
 Total Charge           Charge          ....    0
 Multiplicity           Mult            ....    5
 Number of Electrons    NEL             ....  328
FINAL SINGLE POINT ENERGY     -3217.496568235782
FINAL SINGLE POINT ENERGY     -3217.501213113203
FINAL SINGLE POINT ENERGY     -3217.504822258510
FINAL SINGLE POINT ENERGY     -3217.506864006599
FINAL SINGLE POINT ENERGY     -3217.507734209994
FINAL SINGLE POINT ENERGY     -3217.508223531385
FINAL SINGLE POINT ENERGY     -3217.508570596715
FINAL SINGLE POINT ENERGY     -3217.508856719452
FINAL SINGLE POINT ENERGY     -3217.509047568034
FINAL SINGLE POINT ENERGY     -3217.509228217409
FINAL SINGLE POINT ENERGY     -3217.509481087037
FINAL SINGLE POINT ENERGY     -3217.509508522821
FINAL SINGLE POINT ENERGY     -3217.509535528241
FINAL SINGLE POINT ENERGY     -3217.509564985284
FINAL SINGLE POINT ENERGY     -3217.509589166876
FINAL SINGLE POINT ENERGY     -3217.509609334646
FINAL SINGLE POINT ENERGY     -3217.509623548571
FINAL SINGLE POINT ENERGY     -3217.509629087968
FINAL SINGLE POINT ENERGY     -3217.509632006997
                    ***********************HURRAY********************

CARTESIAN COORDINATES (ANGSTROEM)
---------------------------------
  Au     9.434609    5.547976    8.841342
  Au    10.466945    6.827914    5.948535
  Au     6.792545    5.025118    8.125305
  Au    10.166535    9.749188   12.103101
  Au     9.792170    7.436210   10.720045
  Au     8.260203    9.844777   10.165285
  Au     7.173257    7.309436    9.749190
  Au    11.623994    7.137632    8.608577
  Au    11.139522    9.758250    9.527025
  Au     8.896761    4.634910    6.303233
  Au     9.266332   10.913050    7.770111
  Au    11.349271    9.286150    6.831361
  Au     8.976115    9.175923    5.435279
  Au     6.298187    8.706566    5.355604
  Au     6.856784    9.656935    7.877643
  Au     5.335508    7.334239    7.608604
  Cr     8.026132    7.221688    7.028374

 Multiplicity           Mult            ....    5
 Number of Electrons    NEL             ....  328
 Basis Dimension        Dim             ....  685

ORBITAL ENERGIES
----------------
                 SPIN UP ORBITALS
  NO   OCC          E(Eh)            E(eV)
   0   1.0000    -214.485254     -5836.4405
   1   1.0000     -24.283345      -660.7834
   2   1.0000     -20.648205      -561.8662
   3   1.0000     -20.648166      -561.8652
   4   1.0000     -20.642518      -561.7115
   5   1.0000      -4.036484      -109.8383
   6   1.0000      -4.036057      -109.8267
   7   1.0000      -4.032552      -109.7313
   8   1.0000      -4.032353      -109.7259
   9   1.0000      -4.029540      -109.6494
  10   1.0000      -4.029179      -109.6395
  11   1.0000      -4.028860      -109.6308
  12   1.0000      -4.027558      -109.5954
  13   1.0000      -4.027451      -109.5925
  14   1.0000      -4.024926      -109.5238
  15   1.0000      -4.023801      -109.4932
  16   1.0000      -4.023754      -109.4919
  17   1.0000      -4.021167      -109.4215
  18   1.0000      -4.019544      -109.3773
  19   1.0000      -4.015276      -109.2612
  20   1.0000      -4.015157      -109.2580
  21   1.0000      -2.793908       -76.0261
  22   1.0000      -2.254510       -61.3483
  23   1.0000      -2.254178       -61.3393
  24   1.0000      -2.248785       -61.1925
  25   1.0000      -2.248475       -61.1841
  26   1.0000      -2.248128       -61.1747
  27   1.0000      -2.246600       -61.1331
  28   1.0000      -2.246565       -61.1321
  29   1.0000      -2.246208       -61.1224
  30   1.0000      -2.246068       -61.1186
  31   1.0000      -2.245937       -61.1151
  32   1.0000      -2.245607       -61.1061
  33   1.0000      -2.245475       -61.1025
  34   1.0000      -2.245126       -61.0930
  35   1.0000      -2.244604       -61.0788
  36   1.0000      -2.244351       -61.0719
  37   1.0000      -2.244270       -61.0697
  38   1.0000      -2.242726       -61.0277
  39   1.0000      -2.242504       -61.0216
  40   1.0000      -2.241935       -61.0061
  41   1.0000      -2.241354       -60.9903
  42   1.0000      -2.240968       -60.9798
  43   1.0000      -2.240732       -60.9734
  44   1.0000      -2.239578       -60.9420
  45   1.0000      -2.239455       -60.9387
  46   1.0000      -2.239114       -60.9294
  47   1.0000      -2.239067       -60.9281
  48   1.0000      -2.238830       -60.9217
  49   1.0000      -2.238291       -60.9070
  50   1.0000      -2.237677       -60.8903
  51   1.0000      -2.236770       -60.8656
  52   1.0000      -2.236430       -60.8564
  53   1.0000      -2.236258       -60.8517
  54   1.0000      -2.235916       -60.8424
  55   1.0000      -2.235574       -60.8331
  56   1.0000      -2.234970       -60.8166
  57   1.0000      -2.234036       -60.7912
  58   1.0000      -2.233506       -60.7768
  59   1.0000      -2.233461       -60.7756
  60   1.0000      -2.233164       -60.7675
  61   1.0000      -2.230771       -60.7024
  62   1.0000      -2.230633       -60.6986
  63   1.0000      -2.230510       -60.6953
  64   1.0000      -2.229850       -60.6773
  65   1.0000      -2.229608       -60.6707
  66   1.0000      -2.228207       -60.6326
  67   1.0000      -2.228109       -60.6299
  68   1.0000      -2.225202       -60.5508
  69   1.0000      -2.225012       -60.5456
  70   1.0000      -1.786622       -48.6165
  71   1.0000      -1.786457       -48.6120
  72   1.0000      -1.778818       -48.4041
  73   1.0000      -0.423751       -11.5309
  74   1.0000      -0.394999       -10.7485
  75   1.0000      -0.394013       -10.7217
  76   1.0000      -0.383973       -10.4484
  77   1.0000      -0.380251       -10.3472
  78   1.0000      -0.369121       -10.0443
  79   1.0000      -0.368808       -10.0358
  80   1.0000      -0.363701        -9.8968
  81   1.0000      -0.362983        -9.8773
  82   1.0000      -0.361000        -9.8233
  83   1.0000      -0.357590        -9.7305
  84   1.0000      -0.356265        -9.6945
  85   1.0000      -0.353993        -9.6326
  86   1.0000      -0.352411        -9.5896
  87   1.0000      -0.349778        -9.5180
  88   1.0000      -0.347671        -9.4606
  89   1.0000      -0.347422        -9.4538
  90   1.0000      -0.345973        -9.4144
  91   1.0000      -0.345490        -9.4013
  92   1.0000      -0.340420        -9.2633
  93   1.0000      -0.338994        -9.2245
  94   1.0000      -0.338760        -9.2181
  95   1.0000      -0.337986        -9.1971
  96   1.0000      -0.333613        -9.0781
  97   1.0000      -0.333435        -9.0732
  98   1.0000      -0.330212        -8.9855
  99   1.0000      -0.328446        -8.9375
 100   1.0000      -0.327311        -8.9066
 101   1.0000      -0.326014        -8.8713
 102   1.0000      -0.324824        -8.8389
 103   1.0000      -0.323393        -8.8000
 104   1.0000      -0.321788        -8.7563
 105   1.0000      -0.319913        -8.7053
 106   1.0000      -0.314088        -8.5468
 107   1.0000      -0.311601        -8.4791
 108   1.0000      -0.310030        -8.4364
 109   1.0000      -0.308148        -8.3851
 110   1.0000      -0.305297        -8.3076
 111   1.0000      -0.303654        -8.2628
 112   1.0000      -0.299216        -8.1421
 113   1.0000      -0.298980        -8.1357
 114   1.0000      -0.295007        -8.0275
 115   1.0000      -0.292249        -7.9525
 116   1.0000      -0.289966        -7.8904
 117   1.0000      -0.287047        -7.8110
 118   1.0000      -0.285186        -7.7603
 119   1.0000      -0.282299        -7.6817
 120   1.0000      -0.281555        -7.6615
 121   1.0000      -0.279762        -7.6127
 122   1.0000      -0.278457        -7.5772
 123   1.0000      -0.277896        -7.5619
 124   1.0000      -0.277518        -7.5516
 125   1.0000      -0.275904        -7.5077
 126   1.0000      -0.275460        -7.4957
 127   1.0000      -0.274106        -7.4588
 128   1.0000      -0.273212        -7.4345
 129   1.0000      -0.272390        -7.4121
 130   1.0000      -0.270410        -7.3582
 131   1.0000      -0.270128        -7.3505
 132   1.0000      -0.268140        -7.2965
 133   1.0000      -0.267635        -7.2827
 134   1.0000      -0.266048        -7.2395
 135   1.0000      -0.265202        -7.2165
 136   1.0000      -0.264833        -7.2065
 137   1.0000      -0.264015        -7.1842
 138   1.0000      -0.261537        -7.1168
 139   1.0000      -0.261034        -7.1031
 140   1.0000      -0.258347        -7.0300
 141   1.0000      -0.257353        -7.0029
 142   1.0000      -0.256109        -6.9691
 143   1.0000      -0.254139        -6.9155
 144   1.0000      -0.254113        -6.9148
 145   1.0000      -0.252690        -6.8760
 146   1.0000      -0.252022        -6.8579
 147   1.0000      -0.249961        -6.8018
 148   1.0000      -0.249489        -6.7889
 149   1.0000      -0.247078        -6.7233
 150   1.0000      -0.245206        -6.6724
 151   1.0000      -0.244159        -6.6439
 152   1.0000      -0.241817        -6.5802
 153   1.0000      -0.241520        -6.5721
 154   1.0000      -0.239517        -6.5176
 155   1.0000      -0.235917        -6.4196
 156   1.0000      -0.227486        -6.1902
 157   1.0000      -0.225510        -6.1364
 158   1.0000      -0.224142        -6.0992
 159   1.0000      -0.219063        -5.9610
 160   1.0000      -0.216712        -5.8970
 161   1.0000      -0.216322        -5.8864
 162   1.0000      -0.208411        -5.6712
 163   1.0000      -0.200540        -5.4570
 164   1.0000      -0.196054        -5.3349
 165   1.0000      -0.189280        -5.1506
 166   0.0000      -0.179577        -4.8865
 167   0.0000      -0.149789        -4.0760
 168   0.0000      -0.140459        -3.8221
 169   0.0000      -0.138530        -3.7696
 170   0.0000      -0.133820        -3.6414

                 SPIN DOWN ORBITALS
  NO   OCC          E(Eh)            E(eV)
   0   1.0000    -214.484815     -5836.4285
   1   1.0000     -24.233396      -659.4242
   2   1.0000     -20.612121      -560.8843
   3   1.0000     -20.612037      -560.8820
   4   1.0000     -20.600280      -560.5621
   5   1.0000      -4.035812      -109.8200
   6   1.0000      -4.035387      -109.8085
   7   1.0000      -4.032146      -109.7203
   8   1.0000      -4.031941      -109.7147
   9   1.0000      -4.029082      -109.6369
  10   1.0000      -4.028421      -109.6189
  11   1.0000      -4.028388      -109.6180
  12   1.0000      -4.027465      -109.5929
  13   1.0000      -4.027356      -109.5899
  14   1.0000      -4.024720      -109.5182
  15   1.0000      -4.023064      -109.4731
  16   1.0000      -4.023033      -109.4723
  17   1.0000      -4.021118      -109.4202
  18   1.0000      -4.019386      -109.3731
  19   1.0000      -4.015228      -109.2599
  20   1.0000      -4.015106      -109.2566
  21   1.0000      -2.658451       -72.3401
  22   1.0000      -2.253826       -61.3297
  23   1.0000      -2.253498       -61.3208
  24   1.0000      -2.248282       -61.1789
  25   1.0000      -2.248035       -61.1721
  26   1.0000      -2.247668       -61.1622
  27   1.0000      -2.246075       -61.1188
  28   1.0000      -2.245956       -61.1156
  29   1.0000      -2.245770       -61.1105
  30   1.0000      -2.245509       -61.1034
  31   1.0000      -2.245256       -61.0965
  32   1.0000      -2.244968       -61.0887
  33   1.0000      -2.244697       -61.0813
  34   1.0000      -2.244552       -61.0774
  35   1.0000      -2.244303       -61.0706
  36   1.0000      -2.243939       -61.0607
  37   1.0000      -2.243805       -61.0570
  38   1.0000      -2.242326       -61.0168
  39   1.0000      -2.242065       -61.0097
  40   1.0000      -2.241512       -60.9947
  41   1.0000      -2.241101       -60.9835
  42   1.0000      -2.240612       -60.9702
  43   1.0000      -2.239989       -60.9532
  44   1.0000      -2.239253       -60.9332
  45   1.0000      -2.238831       -60.9217
  46   1.0000      -2.238789       -60.9205
  47   1.0000      -2.238304       -60.9073
  48   1.0000      -2.238024       -60.8997
  49   1.0000      -2.237889       -60.8960
  50   1.0000      -2.237309       -60.8803
  51   1.0000      -2.236383       -60.8551
  52   1.0000      -2.235916       -60.8424
  53   1.0000      -2.235768       -60.8383
  54   1.0000      -2.235735       -60.8374
  55   1.0000      -2.235457       -60.8299
  56   1.0000      -2.234908       -60.8149
  57   1.0000      -2.233983       -60.7898
  58   1.0000      -2.233031       -60.7639
  59   1.0000      -2.232662       -60.7538
  60   1.0000      -2.232651       -60.7535
  61   1.0000      -2.230702       -60.7005
  62   1.0000      -2.230567       -60.6968
  63   1.0000      -2.230352       -60.6910
  64   1.0000      -2.229751       -60.6746
  65   1.0000      -2.229559       -60.6694
  66   1.0000      -2.228154       -60.6312
  67   1.0000      -2.228054       -60.6284
  68   1.0000      -2.225145       -60.5493
  69   1.0000      -2.224950       -60.5440
  70   1.0000      -1.659778       -45.1649
  71   1.0000      -1.659593       -45.1598
  72   1.0000      -1.631589       -44.3978
  73   1.0000      -0.419507       -11.4154
  74   1.0000      -0.392969       -10.6932
  75   1.0000      -0.391589       -10.6557
  76   1.0000      -0.382981       -10.4215
  77   1.0000      -0.377803       -10.2805
  78   1.0000      -0.367561       -10.0018
  79   1.0000      -0.367218        -9.9925
  80   1.0000      -0.363212        -9.8835
  81   1.0000      -0.361509        -9.8371
  82   1.0000      -0.359682        -9.7875
  83   1.0000      -0.356165        -9.6917
  84   1.0000      -0.353954        -9.6316
  85   1.0000      -0.351417        -9.5625
  86   1.0000      -0.351027        -9.5519
  87   1.0000      -0.348482        -9.4827
  88   1.0000      -0.347211        -9.4481
  89   1.0000      -0.346585        -9.4311
  90   1.0000      -0.345213        -9.3937
  91   1.0000      -0.344812        -9.3828
  92   1.0000      -0.339924        -9.2498
  93   1.0000      -0.338666        -9.2156
  94   1.0000      -0.338193        -9.2027
  95   1.0000      -0.336526        -9.1573
  96   1.0000      -0.333264        -9.0686
  97   1.0000      -0.330859        -9.0031
  98   1.0000      -0.329771        -8.9735
  99   1.0000      -0.326467        -8.8836
 100   1.0000      -0.326172        -8.8756
 101   1.0000      -0.324660        -8.8344
 102   1.0000      -0.324010        -8.8168
 103   1.0000      -0.322766        -8.7829
 104   1.0000      -0.320465        -8.7203
 105   1.0000      -0.317737        -8.6461
 106   1.0000      -0.313506        -8.5309
 107   1.0000      -0.309325        -8.4172
 108   1.0000      -0.309037        -8.4093
 109   1.0000      -0.304608        -8.2888
 110   1.0000      -0.303370        -8.2551
 111   1.0000      -0.302347        -8.2273
 112   1.0000      -0.298023        -8.1096
 113   1.0000      -0.297536        -8.0964
 114   1.0000      -0.293242        -7.9795
 115   1.0000      -0.290788        -7.9128
 116   1.0000      -0.288989        -7.8638
 117   1.0000      -0.286300        -7.7906
 118   1.0000      -0.282931        -7.6990
 119   1.0000      -0.281426        -7.6580
 120   1.0000      -0.280736        -7.6392
 121   1.0000      -0.278586        -7.5807
 122   1.0000      -0.278053        -7.5662
 123   1.0000      -0.277225        -7.5437
 124   1.0000      -0.275760        -7.5038
 125   1.0000      -0.274823        -7.4783
 126   1.0000      -0.274654        -7.4737
 127   1.0000      -0.273406        -7.4397
 128   1.0000      -0.272777        -7.4227
 129   1.0000      -0.271954        -7.4003
 130   1.0000      -0.270075        -7.3491
 131   1.0000      -0.269822        -7.3422
 132   1.0000      -0.267965        -7.2917
 133   1.0000      -0.266962        -7.2644
 134   1.0000      -0.265697        -7.2300
 135   1.0000      -0.264680        -7.2023
 136   1.0000      -0.264305        -7.1921
 137   1.0000      -0.263587        -7.1726
 138   1.0000      -0.261280        -7.1098
 139   1.0000      -0.260630        -7.0921
 140   1.0000      -0.257665        -7.0114
 141   1.0000      -0.257060        -6.9950
 142   1.0000      -0.255755        -6.9594
 143   1.0000      -0.253721        -6.9041
 144   1.0000      -0.253557        -6.8996
 145   1.0000      -0.252278        -6.8648
 146   1.0000      -0.251600        -6.8464
 147   1.0000      -0.249519        -6.7898
 148   1.0000      -0.248664        -6.7665
 149   1.0000      -0.246750        -6.7144
 150   1.0000      -0.244848        -6.6627
 151   1.0000      -0.244059        -6.6412
 152   1.0000      -0.241180        -6.5628
 153   1.0000      -0.240789        -6.5522
 154   1.0000      -0.239182        -6.5085
 155   1.0000      -0.235532        -6.4092
 156   1.0000      -0.225520        -6.1367
 157   1.0000      -0.224859        -6.1187
 158   1.0000      -0.221872        -6.0375
 159   1.0000      -0.216157        -5.8819
 160   1.0000      -0.209248        -5.6939
 161   1.0000      -0.205711        -5.5977
 162   0.0000      -0.153485        -4.1765
 163   0.0000      -0.145558        -3.9608
 164   0.0000      -0.140738        -3.8297
 165   0.0000      -0.139868        -3.8060
 166   0.0000      -0.136931        -3.7261

MULLIKEN ATOMIC CHARGES AND SPIN POPULATIONS
--------------------------------------------
   0 Au:    0.087985    0.042436
   1 Au:    0.178514   -0.018649
   2 Au:    0.539497    0.000107
   3 Au:    0.559176    0.008947
   4 Au:   -0.127022   -0.002373
   5 Au:   -0.121116   -0.002287
   6 Au:   -0.093836    0.046863
   7 Au:    0.153434    0.006885
   8 Au:   -0.234251    0.031020
   9 Au:    0.439928    0.035448
  10 Au:    0.160110    0.011043
  11 Au:    0.230846    0.048672
  12 Au:    0.177051   -0.024733
  13 Au:    0.439353    0.037443
  14 Au:    0.071569    0.039412
  15 Au:    0.540599    0.000613
  16 Cr:   -3.001839    3.739152
Sum of atomic charges         :   -0.0000000

LOEWDIN ATOMIC CHARGES AND SPIN POPULATIONS
-------------------------------------------
   0 Au:    0.011427    0.023747
   1 Au:    0.060747   -0.004055
   2 Au:    0.131146   -0.004479
   3 Au:    0.159267    0.013264
   4 Au:   -0.048710    0.009038
   5 Au:   -0.048737    0.009102
   6 Au:    0.039967    0.025900
   7 Au:    0.048083    0.009734
   8 Au:   -0.069068    0.023784
   9 Au:    0.167256    0.022578
  10 Au:    0.049776    0.010496
  11 Au:    0.027207    0.014462
  12 Au:    0.059357   -0.006182
  13 Au:    0.169029    0.024044
  14 Au:    0.010723    0.023270
  15 Au:    0.130421   -0.003813
  16 Cr:   -0.897891    3.809111

  Mayer bond orders larger than 0.100000
B(  0-Au,  2-Au) :   0.2087 B(  0-Au,  4-Au) :   0.4675 B(  0-Au,  6-Au) :   0.1476
B(  0-Au,  7-Au) :   0.2949 B(  0-Au,  9-Au) :   0.2634 B(  0-Au, 16-Cr) :   0.4854
B(  1-Au,  7-Au) :   0.1292 B(  1-Au,  9-Au) :   0.3229 B(  1-Au, 11-Au) :   0.2555
B(  1-Au, 12-Au) :   0.2868 B(  1-Au, 16-Cr) :   0.5712 B(  2-Au,  6-Au) :   0.1876
B(  2-Au,  9-Au) :   0.2498 B(  2-Au, 15-Au) :   0.2731 B(  2-Au, 16-Cr) :   0.5049
B(  3-Au,  4-Au) :   0.3447 B(  3-Au,  5-Au) :   0.3425 B(  3-Au,  8-Au) :   0.2805
B(  4-Au,  5-Au) :   0.2804 B(  4-Au,  6-Au) :   0.2875 B(  4-Au,  7-Au) :   0.2223
B(  4-Au,  8-Au) :   0.3208 B(  4-Au, 16-Cr) :   0.1674 B(  5-Au,  6-Au) :   0.2944
B(  5-Au,  8-Au) :   0.3184 B(  5-Au, 10-Au) :   0.2176 B(  5-Au, 14-Au) :   0.4614
B(  5-Au, 16-Cr) :   0.1642 B(  6-Au, 14-Au) :   0.1472 B(  6-Au, 15-Au) :   0.1908
B(  6-Au, 16-Cr) :   0.4623 B(  7-Au,  8-Au) :   0.3148 B(  7-Au, 11-Au) :   0.2146
B(  7-Au, 16-Cr) :   0.2517 B(  8-Au, 10-Au) :   0.3122 B(  8-Au, 11-Au) :   0.4020
B(  9-Au, 16-Cr) :   0.4432 B( 10-Au, 11-Au) :   0.2107 B( 10-Au, 12-Au) :   0.1320
B( 10-Au, 14-Au) :   0.3050 B( 10-Au, 16-Cr) :   0.2457 B( 11-Au, 12-Au) :   0.2570
B( 11-Au, 16-Cr) :   0.2633 B( 12-Au, 13-Au) :   0.3215 B( 12-Au, 16-Cr) :   0.5794
B( 13-Au, 14-Au) :   0.2649 B( 13-Au, 15-Au) :   0.2510 B( 13-Au, 16-Cr) :   0.4323
B( 14-Au, 15-Au) :   0.2112 B( 14-Au, 16-Cr) :   0.4981 B( 15-Au, 16-Cr) :   0.4975

FINAL SINGLE POINT ENERGY     -3217.509633924084

DIPOLE MOMENT
-------------
                                X             Y             Z
Electronic contribution:     29.15566      27.94838      40.73887
Nuclear contribution   :    -29.58054     -28.22764     -40.84233
                        -----------------------------------------
Total Dipole Moment    :     -0.42489      -0.27926      -0.10346
                        -----------------------------------------
Magnitude (a.u.)       :      0.51886
Magnitude (Debye)      :      1.31884

Rotational constants in cm-1:     0.000931     0.000712     0.000704
Rotational constants in MHz :    27.903370    21.356495    21.106181

                             ****ORCA TERMINATED NORMALLY****
TOTAL RUN TIME: 0 days 5 hours 30 minutes 7 seconds 836 msec
