                         Program Version 5.0.3 -  RELEASE  -
|  1> !CASSCF def2-TZVP def2-TZVP/C
|  2> !MOREAD RIJCOSX
|  3> %maxcore 6000
|  4> %moinp "pbe.qro"
|  5> %pal nprocs 16 end
|  6>
|  7> %casscf
|  8>  mult 6,4
|  9>  bweight 1,1
| 10>  nroots 1,24
| 11>  nel 5
| 12>  norb 5
| 13> end
| 14>
| 15>
| 16> *xyzfile 0 6 pbe.xyz
| 17>
| 18>
| 19>                          ****END OF INPUT****

CARTESIAN COORDINATES (ANGSTROEM)
---------------------------------
  Au    11.119184   11.817586    8.075427
  Au     9.449470   10.321879    9.774380
  Au    11.648433    9.050670    8.316206
  Au    10.656337   10.086984    5.887123
  Au    10.378977    6.771975    8.829853
  Au     8.808373    8.410803    4.966861
  Au     8.447849   11.369077    7.314056
  Au     8.016954    8.073991    9.993337
  Au     8.158925    5.301611    9.429337
  Au     6.913567    6.948084    7.712689
  Au     6.388810    7.148901    5.087356
  Au     6.660036    9.495621    6.647109
  Mn     9.056088    8.742909    7.606170

 Total Charge           Charge          ....    0
 Multiplicity           Mult            ....    6
 Number of Electrons    NEL             ....  253
 Basis Dimension        Dim             ....  525

ORBITAL ENERGIES
----------------

  NO   OCC          E(Eh)            E(eV)
   0   2.0000    -240.523252     -6544.9704
   1   2.0000     -29.098535      -791.8114
   2   2.0000     -24.805238      -674.9848
   3   2.0000     -24.803038      -674.9250
   4   2.0000     -24.802899      -674.9212
   5   2.0000      -4.717678      -128.3746
   6   2.0000      -4.717671      -128.3743
   7   2.0000      -4.714600      -128.2908
   8   2.0000      -4.708666      -128.1293
   9   2.0000      -4.708597      -128.1274
  10   2.0000      -4.708093      -128.1137
  11   2.0000      -4.707930      -128.1093
  12   2.0000      -4.706974      -128.0833
  13   2.0000      -4.706830      -128.0794
  14   2.0000      -4.701215      -127.9266
  15   2.0000      -4.700774      -127.9146
  16   2.0000      -4.700671      -127.9118
  17   2.0000      -3.787651      -103.0672
  18   2.0000      -2.757944       -75.0475
  19   2.0000      -2.756992       -75.0216
  20   2.0000      -2.756738       -75.0147
  21   2.0000      -2.756683       -75.0132
  22   2.0000      -2.752419       -74.8971
  23   2.0000      -2.751937       -74.8840
  24   2.0000      -2.751034       -74.8594
  25   2.0000      -2.750826       -74.8538
  26   2.0000      -2.750618       -74.8481
  27   2.0000      -2.749212       -74.8099
  28   2.0000      -2.747376       -74.7599
  29   2.0000      -2.746501       -74.7361
  30   2.0000      -2.745745       -74.7155
  31   2.0000      -2.745624       -74.7122
  32   2.0000      -2.745453       -74.7076
  33   2.0000      -2.744989       -74.6949
  34   2.0000      -2.743671       -74.6591
  35   2.0000      -2.743219       -74.6468
  36   2.0000      -2.742798       -74.6353
  37   2.0000      -2.742753       -74.6341
  38   2.0000      -2.742542       -74.6284
  39   2.0000      -2.741433       -74.5982
  40   2.0000      -2.740880       -74.5831
  41   2.0000      -2.740824       -74.5816
  42   2.0000      -2.739896       -74.5564
  43   2.0000      -2.739708       -74.5512
  44   2.0000      -2.738298       -74.5129
  45   2.0000      -2.737354       -74.4872
  46   2.0000      -2.736444       -74.4624
  47   2.0000      -2.736382       -74.4607
  48   2.0000      -2.735344       -74.4325
  49   2.0000      -2.735195       -74.4284
  50   2.0000      -2.734961       -74.4221
  51   2.0000      -2.734643       -74.4134
  52   2.0000      -2.733853       -74.3919
  53   2.0000      -2.733738       -74.3888
  54   2.0000      -2.458576       -66.9013
  55   2.0000      -2.455582       -66.8198
  56   2.0000      -2.454511       -66.7906
  57   2.0000      -0.560212       -15.2441
  58   2.0000      -0.554993       -15.1021
  59   2.0000      -0.553877       -15.0718
  60   2.0000      -0.548734       -14.9318
  61   2.0000      -0.540132       -14.6977
  62   2.0000      -0.538140       -14.6435
  63   2.0000      -0.536435       -14.5971
  64   2.0000      -0.534547       -14.5458
  65   2.0000      -0.532351       -14.4860
  66   2.0000      -0.531580       -14.4650
  67   2.0000      -0.527165       -14.3449
  68   2.0000      -0.526905       -14.3378
  69   2.0000      -0.525080       -14.2881
  70   2.0000      -0.522463       -14.2169
  71   2.0000      -0.514442       -13.9987
  72   2.0000      -0.513902       -13.9840
  73   2.0000      -0.512920       -13.9573
  74   2.0000      -0.509779       -13.8718
  75   2.0000      -0.505242       -13.7483
  76   2.0000      -0.501013       -13.6333
  77   2.0000      -0.497291       -13.5320
  78   2.0000      -0.495569       -13.4851
  79   2.0000      -0.492527       -13.4023
  80   2.0000      -0.489618       -13.3232
  81   2.0000      -0.485776       -13.2186
  82   2.0000      -0.485062       -13.1992
  83   2.0000      -0.479151       -13.0384
  84   2.0000      -0.478134       -13.0107
  85   2.0000      -0.476253       -12.9595
  86   2.0000      -0.475640       -12.9428
  87   2.0000      -0.472730       -12.8636
  88   2.0000      -0.470461       -12.8019
  89   2.0000      -0.468117       -12.7381
  90   2.0000      -0.466314       -12.6891
  91   2.0000      -0.461154       -12.5486
  92   2.0000      -0.459124       -12.4934
  93   2.0000      -0.457099       -12.4383
  94   2.0000      -0.456239       -12.4149
  95   2.0000      -0.454219       -12.3599
  96   2.0000      -0.447200       -12.1689
  97   2.0000      -0.447091       -12.1660
  98   2.0000      -0.445451       -12.1213
  99   2.0000      -0.443552       -12.0697
 100   2.0000      -0.442046       -12.0287
 101   2.0000      -0.441071       -12.0022
 102   2.0000      -0.438640       -11.9360
 103   2.0000      -0.437763       -11.9121
 104   2.0000      -0.435291       -11.8449
 105   2.0000      -0.433092       -11.7850
 106   2.0000      -0.431591       -11.7442
 107   2.0000      -0.431006       -11.7283
 108   2.0000      -0.430629       -11.7180
 109   2.0000      -0.425276       -11.5724
 110   2.0000      -0.423961       -11.5366
 111   2.0000      -0.423661       -11.5284
 112   2.0000      -0.415634       -11.3100
 113   2.0000      -0.412828       -11.2336
 114   2.0000      -0.409125       -11.1329
 115   2.0000      -0.397477       -10.8159
 116   2.0000      -0.392392       -10.6775
 117   2.0000      -0.387207       -10.5364
 118   2.0000      -0.368754       -10.0343
 119   2.0000      -0.354182        -9.6378
 120   2.0000      -0.295121        -8.0306
 121   2.0000      -0.277201        -7.5430
 122   2.0000      -0.250160        -6.8072
 123   2.0000      -0.241906        -6.5826
 124   1.0000      -0.109875        -2.9898
 125   1.0000      -0.110780        -3.0145
 126   1.0000      -0.137449        -3.7402
 127   1.0000      -0.078276        -2.1300
 128   1.0000      -0.113018        -3.0754
 129   0.0000      -0.029918        -0.8141
 130   0.0000      -0.014077        -0.3830
 131   0.0000       0.000665         0.0181
 132   0.0000       0.001413         0.0384
 133   0.0000       0.019467         0.5297

MULLIKEN ATOMIC CHARGES AND SPIN DENSITIES
------------------------------------------
   0 Au:    0.250800    0.024934
   1 Au:    0.087968    0.048893
   2 Au:    0.191762    0.037494
   3 Au:    0.190402    0.037278
   4 Au:    0.140218    0.090083
   5 Au:    0.144263    0.088509
   6 Au:    0.088609    0.049227
   7 Au:    0.287262    0.037353
   8 Au:    0.329337    0.090888
   9 Au:   -0.374166    0.142651
  10 Au:    0.329730    0.089891
  11 Au:    0.284926    0.036705
  12 Mn:   -1.951112    3.226094
Sum of atomic charges       :    0.0000000

LOEWDIN ATOMIC CHARGES AND SPIN DENSITIES
-----------------------------------------
   0 Au:    0.075934    0.043615
   1 Au:    0.011342    0.048124
   2 Au:    0.011702    0.043051
   3 Au:    0.011491    0.042976
   4 Au:    0.035945    0.082257
   5 Au:    0.036938    0.081209
   6 Au:    0.011192    0.048271
   7 Au:    0.038568    0.072139
   8 Au:    0.114155    0.104671
   9 Au:   -0.117695    0.101086
  10 Au:    0.114843    0.103452
  11 Au:    0.037857    0.071711
  12 Mn:   -0.382271    3.157437

  Mayer bond orders larger than 0.100000
B(  0-Au,  1-Au) :   0.2423 B(  0-Au,  2-Au) :   0.2171 B(  0-Au,  3-Au) :   0.2176
B(  0-Au,  6-Au) :   0.2422 B(  0-Au, 12-Mn) :   0.1003 B(  1-Au,  2-Au) :   0.1245
B(  1-Au,  3-Au) :   0.1197 B(  1-Au,  6-Au) :   0.1629 B(  1-Au,  7-Au) :   0.2484
B(  1-Au, 12-Mn) :   0.4393 B(  2-Au,  3-Au) :   0.1700 B(  2-Au,  4-Au) :   0.2892
B(  2-Au,  6-Au) :   0.1196 B(  2-Au, 12-Mn) :   0.4350 B(  3-Au,  5-Au) :   0.2889
B(  3-Au,  6-Au) :   0.1257 B(  3-Au, 12-Mn) :   0.4361 B(  4-Au,  7-Au) :   0.1434
B(  4-Au,  8-Au) :   0.2997 B(  4-Au,  9-Au) :   0.1197 B(  4-Au, 12-Mn) :   0.4407
B(  5-Au,  9-Au) :   0.1190 B(  5-Au, 10-Au) :   0.2976 B(  5-Au, 11-Au) :   0.1442
B(  5-Au, 12-Mn) :   0.4394 B(  6-Au, 11-Au) :   0.2492 B(  6-Au, 12-Mn) :   0.4379
B(  7-Au,  8-Au) :   0.2136 B(  7-Au,  9-Au) :   0.2568 B(  7-Au, 12-Mn) :   0.4311
B(  8-Au,  9-Au) :   0.3944 B(  9-Au, 10-Au) :   0.3950 B(  9-Au, 11-Au) :   0.2561
B(  9-Au, 12-Mn) :   0.2782 B( 10-Au, 11-Au) :   0.2152 B( 11-Au, 12-Mn) :   0.4323

FINAL SINGLE POINT ENERGY     -2767.376914134710

DIPOLE MOMENT
-------------
                                X             Y             Z
Electronic contribution:     -6.30865      -0.33329       2.37544
Nuclear contribution   :      6.14300       0.35693      -2.30332
                        -----------------------------------------
Total Dipole Moment    :     -0.16565       0.02364       0.07213
                        -----------------------------------------
Magnitude (a.u.)       :      0.18221
Magnitude (Debye)      :      0.46314

Rotational constants in cm-1:     0.001535     0.001171     0.000911
Rotational constants in MHz :    46.010758    35.107292    27.306238

                             ****ORCA TERMINATED NORMALLY****
TOTAL RUN TIME: 0 days 0 hours 25 minutes 57 seconds 640 msec
