                         Program Version 5.0.3 -  RELEASE  -
|  1> %pal nprocs 1 end
|  2>
|  3> !PBE def2-TZVP OPT UNO
|  4> !SLOWCONV KDIIS
|  5>
|  6> %geom maxiter 300 end
|  7>
|  8> *xyzfile 0 6 9.xyz                           ****END OF INPUT****
 Total Charge           Charge          ....    0
 Multiplicity           Mult            ....    6
 Number of Electrons    NEL             ....  329
FINAL SINGLE POINT ENERGY     -3324.026407947324
FINAL SINGLE POINT ENERGY     -3324.031011221600
FINAL SINGLE POINT ENERGY     -3324.033789335089
FINAL SINGLE POINT ENERGY     -3324.034918744353
FINAL SINGLE POINT ENERGY     -3324.035673082808
FINAL SINGLE POINT ENERGY     -3324.036266477074
FINAL SINGLE POINT ENERGY     -3324.036851667522
FINAL SINGLE POINT ENERGY     -3324.037330105496
FINAL SINGLE POINT ENERGY     -3324.037728423935
FINAL SINGLE POINT ENERGY     -3324.038116168548
FINAL SINGLE POINT ENERGY     -3324.040238140773
FINAL SINGLE POINT ENERGY     -3324.040475135766
FINAL SINGLE POINT ENERGY     -3324.040635721688
FINAL SINGLE POINT ENERGY     -3324.040496540349
FINAL SINGLE POINT ENERGY     -3324.040710506988
FINAL SINGLE POINT ENERGY     -3324.040670186558
FINAL SINGLE POINT ENERGY     -3324.040739827150
FINAL SINGLE POINT ENERGY     -3324.040750780386
FINAL SINGLE POINT ENERGY     -3324.040761571229
                    ***********************HURRAY********************

CARTESIAN COORDINATES (ANGSTROEM)
---------------------------------
  Au     5.390652    6.058017    4.727684
  Au     7.708288    5.556941    8.574817
  Au     7.643043    7.719017    4.687620
  Au     3.601014    6.853628    6.799117
  Au     5.426405    4.839704    7.308882
  Au     5.026230    8.767855    5.337296
  Au     9.368128    7.155681    6.797181
  Au     4.034124    9.343008    7.854923
  Au     8.571781    9.296467    8.669185
  Au     9.888922    6.987130    9.499145
  Au     5.188596    7.016000    9.097485
  Au     7.404588    7.525674   10.633438
  Au     6.010103    9.693272    9.707466
  Au     6.508566   10.472608    7.134535
  Au     9.022762    9.780903    6.001844
  Au     6.885255   10.486498    4.379927
  Mn     7.624004    5.382217    5.936336

 Multiplicity           Mult            ....    6
 Number of Electrons    NEL             ....  329
 Basis Dimension        Dim             ....  685

ORBITAL ENERGIES
----------------
                 SPIN UP ORBITALS
  NO   OCC          E(Eh)            E(eV)
   0   1.0000    -234.221684     -6373.4961
   1   1.0000     -26.920738      -732.5505
   2   1.0000     -23.069665      -627.7575
   3   1.0000     -23.068333      -627.7212
   4   1.0000     -23.067960      -627.7111
   5   1.0000      -4.037941      -109.8780
   6   1.0000      -4.036875      -109.8490
   7   1.0000      -4.036548      -109.8401
   8   1.0000      -4.036057      -109.8267
   9   1.0000      -4.034324      -109.7796
  10   1.0000      -4.025923      -109.5509
  11   1.0000      -4.025804      -109.5477
  12   1.0000      -4.025632      -109.5430
  13   1.0000      -4.024413      -109.5098
  14   1.0000      -4.023567      -109.4868
  15   1.0000      -4.022810      -109.4662
  16   1.0000      -4.021913      -109.4418
  17   1.0000      -4.021726      -109.4367
  18   1.0000      -4.021198      -109.4224
  19   1.0000      -4.020314      -109.3983
  20   1.0000      -4.017779      -109.3293
  21   1.0000      -3.133198       -85.2587
  22   1.0000      -2.256427       -61.4005
  23   1.0000      -2.255544       -61.3765
  24   1.0000      -2.254053       -61.3359
  25   1.0000      -2.252955       -61.3060
  26   1.0000      -2.252750       -61.3004
  27   1.0000      -2.251232       -61.2591
  28   1.0000      -2.250482       -61.2387
  29   1.0000      -2.249343       -61.2077
  30   1.0000      -2.248643       -61.1887
  31   1.0000      -2.246222       -61.1228
  32   1.0000      -2.245249       -61.0963
  33   1.0000      -2.244581       -61.0782
  34   1.0000      -2.244176       -61.0671
  35   1.0000      -2.243627       -61.0522
  36   1.0000      -2.243266       -61.0424
  37   1.0000      -2.242648       -61.0255
  38   1.0000      -2.241675       -60.9991
  39   1.0000      -2.241236       -60.9871
  40   1.0000      -2.241150       -60.9848
  41   1.0000      -2.240436       -60.9654
  42   1.0000      -2.240078       -60.9556
  43   1.0000      -2.239736       -60.9463
  44   1.0000      -2.239241       -60.9328
  45   1.0000      -2.239162       -60.9307
  46   1.0000      -2.238594       -60.9152
  47   1.0000      -2.238136       -60.9028
  48   1.0000      -2.237851       -60.8950
  49   1.0000      -2.236690       -60.8634
  50   1.0000      -2.236574       -60.8603
  51   1.0000      -2.236415       -60.8559
  52   1.0000      -2.235974       -60.8439
  53   1.0000      -2.235637       -60.8348
  54   1.0000      -2.234952       -60.8161
  55   1.0000      -2.234747       -60.8105
  56   1.0000      -2.234211       -60.7960
  57   1.0000      -2.234133       -60.7938
  58   1.0000      -2.233851       -60.7862
  59   1.0000      -2.233415       -60.7743
  60   1.0000      -2.233046       -60.7643
  61   1.0000      -2.232945       -60.7615
  62   1.0000      -2.232732       -60.7557
  63   1.0000      -2.232467       -60.7485
  64   1.0000      -2.231715       -60.7280
  65   1.0000      -2.231639       -60.7260
  66   1.0000      -2.230414       -60.6926
  67   1.0000      -2.230055       -60.6829
  68   1.0000      -2.227193       -60.6050
  69   1.0000      -2.224232       -60.5244
  70   1.0000      -2.038561       -55.4721
  71   1.0000      -2.034402       -55.3589
  72   1.0000      -2.033595       -55.3369
  73   1.0000      -0.416011       -11.3202
  74   1.0000      -0.391938       -10.6652
  75   1.0000      -0.385862       -10.4999
  76   1.0000      -0.384784       -10.4705
  77   1.0000      -0.374358       -10.1868
  78   1.0000      -0.372527       -10.1370
  79   1.0000      -0.368694       -10.0327
  80   1.0000      -0.367090        -9.9890
  81   1.0000      -0.366899        -9.9838
  82   1.0000      -0.363783        -9.8990
  83   1.0000      -0.362803        -9.8724
  84   1.0000      -0.359132        -9.7725
  85   1.0000      -0.357949        -9.7403
  86   1.0000      -0.356293        -9.6952
  87   1.0000      -0.355356        -9.6697
  88   1.0000      -0.353904        -9.6302
  89   1.0000      -0.351868        -9.5748
  90   1.0000      -0.348434        -9.4814
  91   1.0000      -0.347630        -9.4595
  92   1.0000      -0.345444        -9.4000
  93   1.0000      -0.345031        -9.3888
  94   1.0000      -0.343478        -9.3465
  95   1.0000      -0.342081        -9.3085
  96   1.0000      -0.340062        -9.2536
  97   1.0000      -0.338024        -9.1981
  98   1.0000      -0.336103        -9.1458
  99   1.0000      -0.334416        -9.0999
 100   1.0000      -0.332907        -9.0589
 101   1.0000      -0.330812        -9.0019
 102   1.0000      -0.327969        -8.9245
 103   1.0000      -0.326715        -8.8904
 104   1.0000      -0.322755        -8.7826
 105   1.0000      -0.320859        -8.7310
 106   1.0000      -0.319268        -8.6877
 107   1.0000      -0.318071        -8.6552
 108   1.0000      -0.316707        -8.6180
 109   1.0000      -0.312503        -8.5036
 110   1.0000      -0.310705        -8.4547
 111   1.0000      -0.309132        -8.4119
 112   1.0000      -0.303447        -8.2572
 113   1.0000      -0.302258        -8.2249
 114   1.0000      -0.300793        -8.1850
 115   1.0000      -0.298726        -8.1287
 116   1.0000      -0.294324        -8.0090
 117   1.0000      -0.291853        -7.9417
 118   1.0000      -0.290033        -7.8922
 119   1.0000      -0.287495        -7.8231
 120   1.0000      -0.284478        -7.7410
 121   1.0000      -0.283758        -7.7215
 122   1.0000      -0.282553        -7.6887
 123   1.0000      -0.281121        -7.6497
 124   1.0000      -0.280888        -7.6434
 125   1.0000      -0.279624        -7.6090
 126   1.0000      -0.277628        -7.5546
 127   1.0000      -0.277151        -7.5417
 128   1.0000      -0.276230        -7.5166
 129   1.0000      -0.275664        -7.5012
 130   1.0000      -0.274807        -7.4779
 131   1.0000      -0.272729        -7.4213
 132   1.0000      -0.270908        -7.3718
 133   1.0000      -0.268836        -7.3154
 134   1.0000      -0.268187        -7.2977
 135   1.0000      -0.266532        -7.2527
 136   1.0000      -0.265498        -7.2246
 137   1.0000      -0.263668        -7.1748
 138   1.0000      -0.262539        -7.1441
 139   1.0000      -0.261536        -7.1167
 140   1.0000      -0.260623        -7.0919
 141   1.0000      -0.259787        -7.0692
 142   1.0000      -0.258214        -7.0264
 143   1.0000      -0.256370        -6.9762
 144   1.0000      -0.255164        -6.9434
 145   1.0000      -0.254780        -6.9329
 146   1.0000      -0.253185        -6.8895
 147   1.0000      -0.252513        -6.8712
 148   1.0000      -0.251540        -6.8448
 149   1.0000      -0.250698        -6.8219
 150   1.0000      -0.250051        -6.8042
 151   1.0000      -0.248121        -6.7517
 152   1.0000      -0.247624        -6.7382
 153   1.0000      -0.245262        -6.6739
 154   1.0000      -0.244053        -6.6410
 155   1.0000      -0.242245        -6.5918
 156   1.0000      -0.241179        -6.5628
 157   1.0000      -0.240521        -6.5449
 158   1.0000      -0.240107        -6.5337
 159   1.0000      -0.237273        -6.4565
 160   1.0000      -0.234399        -6.3783
 161   1.0000      -0.233278        -6.3478
 162   1.0000      -0.221026        -6.0144
 163   1.0000      -0.219078        -5.9614
 164   1.0000      -0.217250        -5.9117
 165   1.0000      -0.210671        -5.7326
 166   1.0000      -0.202042        -5.4978
 167   0.0000      -0.158519        -4.3135
 168   0.0000      -0.142113        -3.8671
 169   0.0000      -0.138159        -3.7595
 170   0.0000      -0.133240        -3.6256
 171   0.0000      -0.129364        -3.5202

                 SPIN DOWN ORBITALS
  NO   OCC          E(Eh)            E(eV)
   0   1.0000    -234.220790     -6373.4717
   1   1.0000     -26.851029      -730.6537
   2   1.0000     -23.015961      -626.2962
   3   1.0000     -23.015619      -626.2868
   4   1.0000     -23.015454      -626.2823
   5   1.0000      -4.036383      -109.8356
   6   1.0000      -4.035296      -109.8060
   7   1.0000      -4.034987      -109.7976
   8   1.0000      -4.034610      -109.7873
   9   1.0000      -4.032681      -109.7348
  10   1.0000      -4.025766      -109.5467
  11   1.0000      -4.025731      -109.5457
  12   1.0000      -4.025493      -109.5392
  13   1.0000      -4.024320      -109.5073
  14   1.0000      -4.023541      -109.4861
  15   1.0000      -4.022810      -109.4662
  16   1.0000      -4.021870      -109.4407
  17   1.0000      -4.021687      -109.4357
  18   1.0000      -4.021053      -109.4184
  19   1.0000      -4.020371      -109.3999
  20   1.0000      -4.017753      -109.3286
  21   1.0000      -2.961019       -80.5734
  22   1.0000      -2.254360       -61.3443
  23   1.0000      -2.253338       -61.3164
  24   1.0000      -2.251898       -61.2773
  25   1.0000      -2.251166       -61.2573
  26   1.0000      -2.250568       -61.2411
  27   1.0000      -2.248900       -61.1957
  28   1.0000      -2.248703       -61.1903
  29   1.0000      -2.247783       -61.1653
  30   1.0000      -2.247145       -61.1479
  31   1.0000      -2.244979       -61.0890
  32   1.0000      -2.244310       -61.0708
  33   1.0000      -2.244010       -61.0626
  34   1.0000      -2.243473       -61.0480
  35   1.0000      -2.243014       -61.0355
  36   1.0000      -2.242093       -61.0105
  37   1.0000      -2.241494       -60.9942
  38   1.0000      -2.241123       -60.9841
  39   1.0000      -2.240979       -60.9801
  40   1.0000      -2.240503       -60.9672
  41   1.0000      -2.240279       -60.9611
  42   1.0000      -2.239929       -60.9516
  43   1.0000      -2.239565       -60.9417
  44   1.0000      -2.239034       -60.9272
  45   1.0000      -2.239010       -60.9266
  46   1.0000      -2.238519       -60.9132
  47   1.0000      -2.237976       -60.8984
  48   1.0000      -2.237725       -60.8916
  49   1.0000      -2.236633       -60.8619
  50   1.0000      -2.236507       -60.8585
  51   1.0000      -2.236370       -60.8547
  52   1.0000      -2.235910       -60.8422
  53   1.0000      -2.235592       -60.8335
  54   1.0000      -2.234873       -60.8140
  55   1.0000      -2.234690       -60.8090
  56   1.0000      -2.234178       -60.7951
  57   1.0000      -2.234100       -60.7929
  58   1.0000      -2.233721       -60.7827
  59   1.0000      -2.233391       -60.7737
  60   1.0000      -2.232974       -60.7623
  61   1.0000      -2.232865       -60.7594
  62   1.0000      -2.232680       -60.7543
  63   1.0000      -2.232450       -60.7481
  64   1.0000      -2.231665       -60.7267
  65   1.0000      -2.231606       -60.7251
  66   1.0000      -2.230310       -60.6898
  67   1.0000      -2.229992       -60.6812
  68   1.0000      -2.227218       -60.6057
  69   1.0000      -2.224203       -60.5236
  70   1.0000      -1.867581       -50.8195
  71   1.0000      -1.866044       -50.7776
  72   1.0000      -1.865266       -50.7565
  73   1.0000      -0.413903       -11.2629
  74   1.0000      -0.390450       -10.6247
  75   1.0000      -0.383855       -10.4452
  76   1.0000      -0.382475       -10.4077
  77   1.0000      -0.371168       -10.1000
  78   1.0000      -0.369468       -10.0537
  79   1.0000      -0.366287        -9.9672
  80   1.0000      -0.363460        -9.8902
  81   1.0000      -0.363401        -9.8886
  82   1.0000      -0.360923        -9.8212
  83   1.0000      -0.358788        -9.7631
  84   1.0000      -0.356986        -9.7141
  85   1.0000      -0.356029        -9.6880
  86   1.0000      -0.354524        -9.6471
  87   1.0000      -0.353174        -9.6104
  88   1.0000      -0.350553        -9.5390
  89   1.0000      -0.346928        -9.4404
  90   1.0000      -0.344730        -9.3806
  91   1.0000      -0.343866        -9.3571
  92   1.0000      -0.343320        -9.3422
  93   1.0000      -0.342608        -9.3228
  94   1.0000      -0.340002        -9.2519
  95   1.0000      -0.338153        -9.2016
  96   1.0000      -0.335898        -9.1403
  97   1.0000      -0.334252        -9.0955
  98   1.0000      -0.333032        -9.0623
  99   1.0000      -0.330785        -9.0011
 100   1.0000      -0.330548        -8.9947
 101   1.0000      -0.327006        -8.8983
 102   1.0000      -0.326715        -8.8904
 103   1.0000      -0.323336        -8.7984
 104   1.0000      -0.320054        -8.7091
 105   1.0000      -0.318840        -8.6761
 106   1.0000      -0.314423        -8.5559
 107   1.0000      -0.313441        -8.5292
 108   1.0000      -0.312322        -8.4987
 109   1.0000      -0.311301        -8.4709
 110   1.0000      -0.304841        -8.2951
 111   1.0000      -0.303413        -8.2563
 112   1.0000      -0.302047        -8.2191
 113   1.0000      -0.297386        -8.0923
 114   1.0000      -0.294777        -8.0213
 115   1.0000      -0.294170        -8.0048
 116   1.0000      -0.292757        -7.9663
 117   1.0000      -0.290935        -7.9168
 118   1.0000      -0.286350        -7.7920
 119   1.0000      -0.284376        -7.7383
 120   1.0000      -0.280668        -7.6374
 121   1.0000      -0.280569        -7.6347
 122   1.0000      -0.280209        -7.6249
 123   1.0000      -0.278572        -7.5803
 124   1.0000      -0.277397        -7.5484
 125   1.0000      -0.276199        -7.5157
 126   1.0000      -0.275942        -7.5088
 127   1.0000      -0.273288        -7.4366
 128   1.0000      -0.272392        -7.4122
 129   1.0000      -0.269558        -7.3350
 130   1.0000      -0.268086        -7.2950
 131   1.0000      -0.266482        -7.2513
 132   1.0000      -0.265002        -7.2111
 133   1.0000      -0.263960        -7.1827
 134   1.0000      -0.263100        -7.1593
 135   1.0000      -0.261938        -7.1277
 136   1.0000      -0.260368        -7.0850
 137   1.0000      -0.258906        -7.0452
 138   1.0000      -0.256841        -6.9890
 139   1.0000      -0.256253        -6.9730
 140   1.0000      -0.255830        -6.9615
 141   1.0000      -0.254118        -6.9149
 142   1.0000      -0.252662        -6.8753
 143   1.0000      -0.252353        -6.8669
 144   1.0000      -0.251324        -6.8389
 145   1.0000      -0.250853        -6.8260
 146   1.0000      -0.248625        -6.7654
 147   1.0000      -0.247522        -6.7354
 148   1.0000      -0.247437        -6.7331
 149   1.0000      -0.244474        -6.6525
 150   1.0000      -0.243079        -6.6145
 151   1.0000      -0.241718        -6.5775
 152   1.0000      -0.241007        -6.5581
 153   1.0000      -0.240151        -6.5348
 154   1.0000      -0.239485        -6.5167
 155   1.0000      -0.234448        -6.3797
 156   1.0000      -0.234088        -6.3699
 157   1.0000      -0.221737        -6.0338
 158   1.0000      -0.218446        -5.9442
 159   1.0000      -0.216816        -5.8999
 160   1.0000      -0.208796        -5.6816
 161   1.0000      -0.201099        -5.4722
 162   0.0000      -0.169041        -4.5998
 163   0.0000      -0.158627        -4.3164
 164   0.0000      -0.153104        -4.1662
 165   0.0000      -0.147288        -4.0079
 166   0.0000      -0.146095        -3.9754

MULLIKEN ATOMIC CHARGES AND SPIN POPULATIONS
--------------------------------------------
   0 Au:    0.255326    0.046111
   1 Au:   -0.287030    0.010561
   2 Au:   -0.201828    0.012058
   3 Au:    0.187960   -0.003911
   4 Au:    0.311571    0.055178
   5 Au:   -0.530768    0.025474
   6 Au:   -0.135925    0.025474
   7 Au:    0.210627    0.000627
   8 Au:   -0.434097    0.008999
   9 Au:    0.458376    0.008167
  10 Au:   -0.647515    0.029389
  11 Au:    0.291096   -0.006558
  12 Au:    0.292603   -0.004799
  13 Au:   -0.479890   -0.000777
  14 Au:    0.255773    0.004262
  15 Au:    0.506677   -0.002140
  16 Mn:   -0.052956    4.791884
Sum of atomic charges         :   -0.0000000

LOEWDIN ATOMIC CHARGES AND SPIN POPULATIONS
-------------------------------------------
   0 Au:    0.032046    0.079521
   1 Au:   -0.062556    0.070229
   2 Au:   -0.057910    0.063683
   3 Au:   -0.002307    0.008521
   4 Au:    0.012316    0.081567
   5 Au:   -0.098794    0.009950
   6 Au:   -0.047738    0.074445
   7 Au:    0.022530    0.006023
   8 Au:   -0.083061    0.001428
   9 Au:    0.092244    0.007534
  10 Au:   -0.084611    0.011541
  11 Au:    0.014616    0.000393
  12 Au:    0.022806   -0.003371
  13 Au:   -0.076169    0.001197
  14 Au:   -0.004114    0.004132
  15 Au:    0.113889    0.002783
  16 Mn:    0.206812    4.580425

  Mayer bond orders larger than 0.100000
B(  0-Au,  2-Au) :   0.2217 B(  0-Au,  3-Au) :   0.2244 B(  0-Au,  4-Au) :   0.1815
B(  0-Au,  5-Au) :   0.3335 B(  0-Au, 16-Mn) :   0.4995 B(  1-Au,  4-Au) :   0.3461
B(  1-Au,  6-Au) :   0.1624 B(  1-Au,  8-Au) :   0.1629 B(  1-Au,  9-Au) :   0.3427
B(  1-Au, 10-Au) :   0.2710 B(  1-Au, 11-Au) :   0.2597 B(  1-Au, 16-Mn) :   0.5123
B(  2-Au,  5-Au) :   0.3161 B(  2-Au,  6-Au) :   0.2109 B(  2-Au, 13-Au) :   0.1194
B(  2-Au, 14-Au) :   0.3293 B(  2-Au, 15-Au) :   0.1686 B(  2-Au, 16-Mn) :   0.4622
B(  3-Au,  4-Au) :   0.2906 B(  3-Au,  5-Au) :   0.3400 B(  3-Au,  7-Au) :   0.3097
B(  3-Au, 10-Au) :   0.3811 B(  4-Au, 10-Au) :   0.2756 B(  4-Au, 16-Mn) :   0.4467
B(  5-Au,  7-Au) :   0.3213 B(  5-Au, 13-Au) :   0.3747 B(  5-Au, 15-Au) :   0.3856
B(  6-Au,  8-Au) :   0.2789 B(  6-Au,  9-Au) :   0.2774 B(  6-Au, 14-Au) :   0.2752
B(  6-Au, 16-Mn) :   0.5075 B(  7-Au, 10-Au) :   0.2537 B(  7-Au, 12-Au) :   0.2840
B(  7-Au, 13-Au) :   0.2872 B(  8-Au,  9-Au) :   0.2699 B(  8-Au, 11-Au) :   0.2504
B(  8-Au, 12-Au) :   0.2629 B(  8-Au, 13-Au) :   0.3695 B(  8-Au, 14-Au) :   0.3322
B(  9-Au, 11-Au) :   0.2249 B( 10-Au, 11-Au) :   0.4151 B( 10-Au, 12-Au) :   0.2649
B( 11-Au, 12-Au) :   0.2689 B( 12-Au, 13-Au) :   0.3951 B( 13-Au, 14-Au) :   0.2558
B( 13-Au, 15-Au) :   0.2906 B( 14-Au, 15-Au) :   0.2125

FINAL SINGLE POINT ENERGY     -3324.040764827249

DIPOLE MOMENT
-------------
                                X             Y             Z
Electronic contribution:    -32.24433      94.10262      50.38381
Nuclear contribution   :     32.71541     -94.76190     -50.83576
                        -----------------------------------------
Total Dipole Moment    :      0.47108      -0.65928      -0.45195
                        -----------------------------------------
Magnitude (a.u.)       :      0.92781
Magnitude (Debye)      :      2.35830

Rotational constants in cm-1:     0.000894     0.000805     0.000724
Rotational constants in MHz :    26.809709    24.138109    21.707714

                             ****ORCA TERMINATED NORMALLY****
TOTAL RUN TIME: 0 days 11 hours 22 minutes 16 seconds 42 msec
