                         Program Version 5.0.3 -  RELEASE  -
|  1> %pal nprocs 1 end
|  2>
|  3> !PBE def2-TZVP OPT UNO
|  4> !SLOWCONV
|  5>
|  6> *xyzfile 0 5 5.xyz                           ****END OF INPUT****
 Total Charge           Charge          ....    0
 Multiplicity           Mult            ....    5
 Number of Electrons    NEL             ....  330
FINAL SINGLE POINT ENERGY     -3436.755326544208
FINAL SINGLE POINT ENERGY     -3436.758023840882
FINAL SINGLE POINT ENERGY     -3436.758299604800
FINAL SINGLE POINT ENERGY     -3436.758549657115
FINAL SINGLE POINT ENERGY     -3436.758939025275
FINAL SINGLE POINT ENERGY     -3436.759207999495
FINAL SINGLE POINT ENERGY     -3436.759498497134
FINAL SINGLE POINT ENERGY     -3436.759820238703
FINAL SINGLE POINT ENERGY     -3436.760039454271
FINAL SINGLE POINT ENERGY     -3436.760102795998
FINAL SINGLE POINT ENERGY     -3436.760133558457
FINAL SINGLE POINT ENERGY     -3436.760155571629
FINAL SINGLE POINT ENERGY     -3436.760168085364
                    ***********************HURRAY********************

CARTESIAN COORDINATES (ANGSTROEM)
---------------------------------
  Au     5.075165    6.086742   10.459423
  Au     5.313825    8.972654   10.329235
  Au     7.495192    7.363720   11.127218
  Au     7.832678    9.556796    9.271258
  Au     5.054629    4.992455    7.855529
  Au     5.478757    9.687342    7.601511
  Au     3.845337    7.504866    8.309700
  Au     9.755180    4.601754    8.026848
  Au     7.724051    6.919535    4.487258
  Au     7.445265    5.162691    6.608119
  Au     9.719054    6.890054    6.433782
  Au    10.156316    9.310740    7.777486
  Au     7.780011    8.976048    6.376758
  Au     5.443879    7.232537    6.045386
  Au     9.430374    7.080948    9.263735
  Au     7.436258    4.941095    9.525687
  Fe     6.599715    7.280777    8.479900

 Multiplicity           Mult            ....    5
 Number of Electrons    NEL             ....  330
 Basis Dimension        Dim             ....  685

ORBITAL ENERGIES
----------------
                 SPIN UP ORBITALS
  NO   OCC          E(Eh)            E(eV)
   0   1.0000    -254.756447     -6932.2754
   1   1.0000     -29.592468      -805.2520
   2   1.0000     -25.539347      -694.9610
   3   1.0000     -25.524373      -694.5535
   4   1.0000     -25.519488      -694.4206
   5   1.0000      -4.036680      -109.8436
   6   1.0000      -4.036672      -109.8434
   7   1.0000      -4.034172      -109.7754
   8   1.0000      -4.033963      -109.7697
   9   1.0000      -4.033662      -109.7615
  10   1.0000      -4.031128      -109.6926
  11   1.0000      -4.030581      -109.6777
  12   1.0000      -4.030483      -109.6750
  13   1.0000      -4.029248      -109.6414
  14   1.0000      -4.029241      -109.6412
  15   1.0000      -4.027729      -109.6001
  16   1.0000      -4.025522      -109.5400
  17   1.0000      -4.025338      -109.5350
  18   1.0000      -4.021274      -109.4244
  19   1.0000      -4.020987      -109.4166
  20   1.0000      -4.020985      -109.4166
  21   1.0000      -3.373943       -91.8097
  22   1.0000      -2.252804       -61.3019
  23   1.0000      -2.252749       -61.3004
  24   1.0000      -2.250308       -61.2340
  25   1.0000      -2.250210       -61.2313
  26   1.0000      -2.249749       -61.2188
  27   1.0000      -2.249646       -61.2160
  28   1.0000      -2.249529       -61.2128
  29   1.0000      -2.247750       -61.1644
  30   1.0000      -2.247422       -61.1555
  31   1.0000      -2.247133       -61.1476
  32   1.0000      -2.246307       -61.1251
  33   1.0000      -2.245976       -61.1161
  34   1.0000      -2.245605       -61.1060
  35   1.0000      -2.245122       -61.0929
  36   1.0000      -2.244887       -61.0865
  37   1.0000      -2.244683       -61.0809
  38   1.0000      -2.244536       -61.0769
  39   1.0000      -2.244442       -61.0744
  40   1.0000      -2.244264       -61.0695
  41   1.0000      -2.243798       -61.0569
  42   1.0000      -2.243621       -61.0520
  43   1.0000      -2.243551       -61.0501
  44   1.0000      -2.243153       -61.0393
  45   1.0000      -2.242925       -61.0331
  46   1.0000      -2.242551       -61.0229
  47   1.0000      -2.242287       -61.0157
  48   1.0000      -2.242027       -61.0087
  49   1.0000      -2.241822       -61.0031
  50   1.0000      -2.241618       -60.9975
  51   1.0000      -2.239887       -60.9504
  52   1.0000      -2.239574       -60.9419
  53   1.0000      -2.239537       -60.9409
  54   1.0000      -2.239326       -60.9352
  55   1.0000      -2.238302       -60.9073
  56   1.0000      -2.238148       -60.9031
  57   1.0000      -2.237958       -60.8979
  58   1.0000      -2.236945       -60.8704
  59   1.0000      -2.236845       -60.8677
  60   1.0000      -2.236328       -60.8536
  61   1.0000      -2.235552       -60.8325
  62   1.0000      -2.235256       -60.8244
  63   1.0000      -2.235145       -60.8214
  64   1.0000      -2.234459       -60.8027
  65   1.0000      -2.234230       -60.7965
  66   1.0000      -2.234148       -60.7943
  67   1.0000      -2.232658       -60.7537
  68   1.0000      -2.232324       -60.7446
  69   1.0000      -2.232220       -60.7418
  70   1.0000      -2.211188       -60.1695
  71   1.0000      -2.181262       -59.3551
  72   1.0000      -2.170925       -59.0739
  73   1.0000      -0.442591       -12.0435
  74   1.0000      -0.399151       -10.8615
  75   1.0000      -0.394645       -10.7388
  76   1.0000      -0.393264       -10.7013
  77   1.0000      -0.381127       -10.3710
  78   1.0000      -0.380444       -10.3524
  79   1.0000      -0.377383       -10.2691
  80   1.0000      -0.376760       -10.2522
  81   1.0000      -0.373848       -10.1729
  82   1.0000      -0.371355       -10.1051
  83   1.0000      -0.365120        -9.9354
  84   1.0000      -0.364741        -9.9251
  85   1.0000      -0.362711        -9.8699
  86   1.0000      -0.356534        -9.7018
  87   1.0000      -0.355657        -9.6779
  88   1.0000      -0.353738        -9.6257
  89   1.0000      -0.353638        -9.6230
  90   1.0000      -0.353189        -9.6108
  91   1.0000      -0.351730        -9.5710
  92   1.0000      -0.350368        -9.5340
  93   1.0000      -0.349636        -9.5141
  94   1.0000      -0.344501        -9.3744
  95   1.0000      -0.343112        -9.3365
  96   1.0000      -0.342482        -9.3194
  97   1.0000      -0.342082        -9.3085
  98   1.0000      -0.336756        -9.1636
  99   1.0000      -0.336233        -9.1494
 100   1.0000      -0.332467        -9.0469
 101   1.0000      -0.328109        -8.9283
 102   1.0000      -0.326661        -8.8889
 103   1.0000      -0.325856        -8.8670
 104   1.0000      -0.321164        -8.7393
 105   1.0000      -0.320875        -8.7315
 106   1.0000      -0.318294        -8.6612
 107   1.0000      -0.312754        -8.5105
 108   1.0000      -0.311980        -8.4894
 109   1.0000      -0.311050        -8.4641
 110   1.0000      -0.310890        -8.4597
 111   1.0000      -0.308859        -8.4045
 112   1.0000      -0.306681        -8.3452
 113   1.0000      -0.305179        -8.3043
 114   1.0000      -0.303881        -8.2690
 115   1.0000      -0.300057        -8.1650
 116   1.0000      -0.297780        -8.1030
 117   1.0000      -0.296800        -8.0763
 118   1.0000      -0.290185        -7.8963
 119   1.0000      -0.289328        -7.8730
 120   1.0000      -0.288398        -7.8477
 121   1.0000      -0.288039        -7.8379
 122   1.0000      -0.287025        -7.8103
 123   1.0000      -0.285724        -7.7749
 124   1.0000      -0.284672        -7.7463
 125   1.0000      -0.278372        -7.5749
 126   1.0000      -0.278254        -7.5717
 127   1.0000      -0.276614        -7.5270
 128   1.0000      -0.275482        -7.4963
 129   1.0000      -0.273710        -7.4480
 130   1.0000      -0.271372        -7.3844
 131   1.0000      -0.270874        -7.3709
 132   1.0000      -0.270470        -7.3599
 133   1.0000      -0.269018        -7.3204
 134   1.0000      -0.268561        -7.3079
 135   1.0000      -0.267318        -7.2741
 136   1.0000      -0.265731        -7.2309
 137   1.0000      -0.265655        -7.2288
 138   1.0000      -0.264877        -7.2077
 139   1.0000      -0.262975        -7.1559
 140   1.0000      -0.262513        -7.1433
 141   1.0000      -0.260313        -7.0835
 142   1.0000      -0.259434        -7.0596
 143   1.0000      -0.257856        -7.0166
 144   1.0000      -0.256686        -6.9848
 145   1.0000      -0.255052        -6.9403
 146   1.0000      -0.254983        -6.9384
 147   1.0000      -0.253922        -6.9096
 148   1.0000      -0.253464        -6.8971
 149   1.0000      -0.253386        -6.8950
 150   1.0000      -0.252617        -6.8741
 151   1.0000      -0.251114        -6.8331
 152   1.0000      -0.250736        -6.8229
 153   1.0000      -0.249881        -6.7996
 154   1.0000      -0.248107        -6.7513
 155   1.0000      -0.247538        -6.7358
 156   1.0000      -0.244671        -6.6578
 157   1.0000      -0.244290        -6.6475
 158   1.0000      -0.239250        -6.5103
 159   1.0000      -0.238909        -6.5011
 160   1.0000      -0.235869        -6.4183
 161   1.0000      -0.234635        -6.3847
 162   1.0000      -0.222205        -6.0465
 163   1.0000      -0.220353        -5.9961
 164   1.0000      -0.212536        -5.7834
 165   1.0000      -0.195631        -5.3234
 166   1.0000      -0.195276        -5.3137
 167   0.0000      -0.155442        -4.2298
 168   0.0000      -0.142486        -3.8772
 169   0.0000      -0.142315        -3.8726
 170   0.0000      -0.131203        -3.5702
 171   0.0000      -0.130037        -3.5385

                 SPIN DOWN ORBITALS
  NO   OCC          E(Eh)            E(eV)
   0   1.0000    -254.755774     -6932.2570
   1   1.0000     -29.532984      -803.6334
   2   1.0000     -25.489353      -693.6005
   3   1.0000     -25.480922      -693.3711
   4   1.0000     -25.478239      -693.2981
   5   1.0000      -4.035754      -109.8184
   6   1.0000      -4.035749      -109.8183
   7   1.0000      -4.033607      -109.7600
   8   1.0000      -4.033403      -109.7545
   9   1.0000      -4.033077      -109.7456
  10   1.0000      -4.030890      -109.6861
  11   1.0000      -4.029887      -109.6588
  12   1.0000      -4.029789      -109.6561
  13   1.0000      -4.028652      -109.6252
  14   1.0000      -4.028647      -109.6251
  15   1.0000      -4.027593      -109.5964
  16   1.0000      -4.025280      -109.5334
  17   1.0000      -4.025246      -109.5325
  18   1.0000      -4.021136      -109.4207
  19   1.0000      -4.020861      -109.4132
  20   1.0000      -4.020858      -109.4131
  21   1.0000      -3.238537       -88.1251
  22   1.0000      -2.251636       -61.2701
  23   1.0000      -2.251602       -61.2692
  24   1.0000      -2.249557       -61.2136
  25   1.0000      -2.249416       -61.2097
  26   1.0000      -2.248990       -61.1981
  27   1.0000      -2.248566       -61.1866
  28   1.0000      -2.248476       -61.1841
  29   1.0000      -2.247333       -61.1530
  30   1.0000      -2.247034       -61.1449
  31   1.0000      -2.246687       -61.1355
  32   1.0000      -2.245833       -61.1122
  33   1.0000      -2.245401       -61.1005
  34   1.0000      -2.245012       -61.0899
  35   1.0000      -2.244662       -61.0804
  36   1.0000      -2.243964       -61.0614
  37   1.0000      -2.243915       -61.0600
  38   1.0000      -2.243815       -61.0573
  39   1.0000      -2.243771       -61.0561
  40   1.0000      -2.243444       -61.0472
  41   1.0000      -2.243198       -61.0405
  42   1.0000      -2.242942       -61.0336
  43   1.0000      -2.242843       -61.0308
  44   1.0000      -2.242406       -61.0190
  45   1.0000      -2.242317       -61.0166
  46   1.0000      -2.242212       -61.0137
  47   1.0000      -2.241873       -61.0045
  48   1.0000      -2.241287       -60.9885
  49   1.0000      -2.241166       -60.9852
  50   1.0000      -2.240811       -60.9756
  51   1.0000      -2.239751       -60.9467
  52   1.0000      -2.239289       -60.9341
  53   1.0000      -2.239222       -60.9323
  54   1.0000      -2.239014       -60.9267
  55   1.0000      -2.238185       -60.9041
  56   1.0000      -2.237760       -60.8925
  57   1.0000      -2.237694       -60.8908
  58   1.0000      -2.236857       -60.8680
  59   1.0000      -2.236715       -60.8641
  60   1.0000      -2.236189       -60.8498
  61   1.0000      -2.235385       -60.8279
  62   1.0000      -2.235106       -60.8203
  63   1.0000      -2.234989       -60.8171
  64   1.0000      -2.234367       -60.8002
  65   1.0000      -2.234142       -60.7941
  66   1.0000      -2.234070       -60.7921
  67   1.0000      -2.232466       -60.7485
  68   1.0000      -2.232134       -60.7395
  69   1.0000      -2.232029       -60.7366
  70   1.0000      -2.063412       -56.1483
  71   1.0000      -2.053545       -55.8798
  72   1.0000      -2.048747       -55.7492
  73   1.0000      -0.437951       -11.9172
  74   1.0000      -0.397810       -10.8250
  75   1.0000      -0.393276       -10.7016
  76   1.0000      -0.392341       -10.6761
  77   1.0000      -0.373598       -10.1661
  78   1.0000      -0.373064       -10.1516
  79   1.0000      -0.372356       -10.1323
  80   1.0000      -0.371742       -10.1156
  81   1.0000      -0.370964       -10.0945
  82   1.0000      -0.369189       -10.0461
  83   1.0000      -0.363328        -9.8867
  84   1.0000      -0.362765        -9.8713
  85   1.0000      -0.359347        -9.7783
  86   1.0000      -0.354212        -9.6386
  87   1.0000      -0.353621        -9.6225
  88   1.0000      -0.352689        -9.5971
  89   1.0000      -0.351923        -9.5763
  90   1.0000      -0.351256        -9.5582
  91   1.0000      -0.351175        -9.5560
  92   1.0000      -0.347781        -9.4636
  93   1.0000      -0.347525        -9.4566
  94   1.0000      -0.344056        -9.3622
  95   1.0000      -0.342761        -9.3270
  96   1.0000      -0.341014        -9.2795
  97   1.0000      -0.340935        -9.2773
  98   1.0000      -0.334351        -9.0982
  99   1.0000      -0.334293        -9.0966
 100   1.0000      -0.331293        -9.0149
 101   1.0000      -0.326670        -8.8891
 102   1.0000      -0.325421        -8.8552
 103   1.0000      -0.325266        -8.8509
 104   1.0000      -0.319014        -8.6808
 105   1.0000      -0.315753        -8.5921
 106   1.0000      -0.315529        -8.5860
 107   1.0000      -0.309403        -8.4193
 108   1.0000      -0.308930        -8.4064
 109   1.0000      -0.308320        -8.3898
 110   1.0000      -0.307010        -8.3542
 111   1.0000      -0.306485        -8.3399
 112   1.0000      -0.304435        -8.2841
 113   1.0000      -0.301921        -8.2157
 114   1.0000      -0.294236        -8.0066
 115   1.0000      -0.294071        -8.0021
 116   1.0000      -0.291280        -7.9261
 117   1.0000      -0.289957        -7.8901
 118   1.0000      -0.287519        -7.8238
 119   1.0000      -0.286411        -7.7936
 120   1.0000      -0.285847        -7.7783
 121   1.0000      -0.285289        -7.7631
 122   1.0000      -0.283697        -7.7198
 123   1.0000      -0.283065        -7.7026
 124   1.0000      -0.282429        -7.6853
 125   1.0000      -0.276675        -7.5287
 126   1.0000      -0.276596        -7.5266
 127   1.0000      -0.274703        -7.4751
 128   1.0000      -0.272370        -7.4116
 129   1.0000      -0.271548        -7.3892
 130   1.0000      -0.270595        -7.3633
 131   1.0000      -0.269598        -7.3361
 132   1.0000      -0.269519        -7.3340
 133   1.0000      -0.267178        -7.2703
 134   1.0000      -0.266293        -7.2462
 135   1.0000      -0.265296        -7.2191
 136   1.0000      -0.264102        -7.1866
 137   1.0000      -0.264055        -7.1853
 138   1.0000      -0.263350        -7.1661
 139   1.0000      -0.259149        -7.0518
 140   1.0000      -0.259075        -7.0498
 141   1.0000      -0.258561        -7.0358
 142   1.0000      -0.257309        -7.0017
 143   1.0000      -0.254262        -6.9188
 144   1.0000      -0.253917        -6.9094
 145   1.0000      -0.253233        -6.8908
 146   1.0000      -0.251995        -6.8571
 147   1.0000      -0.251305        -6.8383
 148   1.0000      -0.251033        -6.8310
 149   1.0000      -0.249747        -6.7960
 150   1.0000      -0.247778        -6.7424
 151   1.0000      -0.247347        -6.7307
 152   1.0000      -0.244232        -6.6459
 153   1.0000      -0.244132        -6.6432
 154   1.0000      -0.238495        -6.4898
 155   1.0000      -0.235764        -6.4155
 156   1.0000      -0.235437        -6.4066
 157   1.0000      -0.226282        -6.1574
 158   1.0000      -0.225280        -6.1302
 159   1.0000      -0.216922        -5.9027
 160   1.0000      -0.204802        -5.5729
 161   1.0000      -0.204278        -5.5587
 162   1.0000      -0.176419        -4.8006
 163   0.0000      -0.165335        -4.4990
 164   0.0000      -0.163772        -4.4565
 165   0.0000      -0.158682        -4.3180
 166   0.0000      -0.151487        -4.1222
 167   0.0000      -0.145888        -3.9698

MULLIKEN ATOMIC CHARGES AND SPIN POPULATIONS
--------------------------------------------
   0 Au:    0.338812    0.057076
   1 Au:    0.346745    0.038770
   2 Au:    0.304962    0.053494
   3 Au:    0.038790    0.070791
   4 Au:    0.303943    0.036871
   5 Au:    0.304332    0.053392
   6 Au:    0.339032    0.057094
   7 Au:    0.417011    0.017757
   8 Au:    0.416363    0.017849
   9 Au:   -0.278996    0.064629
  10 Au:    0.053327    0.007144
  11 Au:    0.412903    0.024128
  12 Au:   -0.274176    0.091567
  13 Au:    0.046347    0.092989
  14 Au:   -0.277141    0.091721
  15 Au:    0.048376    0.092572
  16 Fe:   -2.540630    3.132155
Sum of atomic charges         :   -0.0000000

LOEWDIN ATOMIC CHARGES AND SPIN POPULATIONS
-------------------------------------------
   0 Au:    0.063451    0.046279
   1 Au:    0.060731    0.021554
   2 Au:    0.075167    0.051623
   3 Au:    0.004675    0.053738
   4 Au:    0.073030    0.034000
   5 Au:    0.074820    0.051575
   6 Au:    0.063423    0.046310
   7 Au:    0.118207    0.025455
   8 Au:    0.117975    0.025523
   9 Au:   -0.068225    0.036252
  10 Au:   -0.062564    0.016700
  11 Au:    0.120290    0.034611
  12 Au:   -0.053620    0.066041
  13 Au:    0.014862    0.072635
  14 Au:   -0.054250    0.066137
  15 Au:    0.015180    0.072399
  16 Fe:   -0.563152    3.279168

  Mayer bond orders larger than 0.100000
B(  0-Au,  1-Au) :   0.1622 B(  0-Au,  2-Au) :   0.1830 B(  0-Au,  4-Au) :   0.1816
B(  0-Au,  6-Au) :   0.1786 B(  0-Au, 15-Au) :   0.2943 B(  0-Au, 16-Fe) :   0.3970
B(  1-Au,  2-Au) :   0.1819 B(  1-Au,  3-Au) :   0.3052 B(  1-Au,  5-Au) :   0.1821
B(  1-Au,  6-Au) :   0.1629 B(  1-Au, 16-Fe) :   0.3406 B(  2-Au,  3-Au) :   0.1379
B(  2-Au, 14-Au) :   0.3384 B(  2-Au, 15-Au) :   0.1316 B(  2-Au, 16-Fe) :   0.4142
B(  3-Au,  5-Au) :   0.1392 B(  3-Au, 11-Au) :   0.3394 B(  3-Au, 12-Au) :   0.1649
B(  3-Au, 14-Au) :   0.1666 B(  3-Au, 16-Fe) :   0.4456 B(  4-Au,  6-Au) :   0.1814
B(  4-Au,  9-Au) :   0.3482 B(  4-Au, 13-Au) :   0.1353 B(  4-Au, 15-Au) :   0.1347
B(  4-Au, 16-Fe) :   0.3866 B(  5-Au,  6-Au) :   0.1829 B(  5-Au, 12-Au) :   0.3382
B(  5-Au, 13-Au) :   0.1311 B(  5-Au, 16-Fe) :   0.4142 B(  6-Au, 13-Au) :   0.2947
B(  6-Au, 16-Fe) :   0.3967 B(  7-Au,  9-Au) :   0.2805 B(  7-Au, 10-Au) :   0.2530
B(  7-Au, 14-Au) :   0.2595 B(  7-Au, 15-Au) :   0.3314 B(  8-Au,  9-Au) :   0.2810
B(  8-Au, 10-Au) :   0.2539 B(  8-Au, 12-Au) :   0.2569 B(  8-Au, 13-Au) :   0.3332
B(  9-Au, 10-Au) :   0.2586 B(  9-Au, 13-Au) :   0.1753 B(  9-Au, 15-Au) :   0.1774
B(  9-Au, 16-Fe) :   0.3493 B( 10-Au, 11-Au) :   0.2197 B( 10-Au, 12-Au) :   0.2556
B( 10-Au, 14-Au) :   0.2549 B( 11-Au, 12-Au) :   0.2815 B( 11-Au, 14-Au) :   0.2824
B( 12-Au, 13-Au) :   0.1723 B( 12-Au, 16-Fe) :   0.3908 B( 13-Au, 16-Fe) :   0.4736
B( 14-Au, 15-Au) :   0.1714 B( 14-Au, 16-Fe) :   0.3913 B( 15-Au, 16-Fe) :   0.4734

FINAL SINGLE POINT ENERGY     -3436.760173115813

DIPOLE MOMENT
-------------
                                X             Y             Z
Electronic contribution:     22.59058      -2.88342     -14.84180
Nuclear contribution   :    -22.46319       2.90031      14.78195
                        -----------------------------------------
Total Dipole Moment    :      0.12739       0.01689      -0.05984
                        -----------------------------------------
Magnitude (a.u.)       :      0.14176
Magnitude (Debye)      :      0.36033

Rotational constants in cm-1:     0.000963     0.000791     0.000785
Rotational constants in MHz :    28.864308    23.728551    23.545025

                             ****ORCA TERMINATED NORMALLY****
TOTAL RUN TIME: 0 days 5 hours 32 minutes 10 seconds 328 msec
