                         Program Version 5.0.3 -  RELEASE  -
|  1> !RI-B2PLYP def2-TZVP def2-TZVP/C
|  2> !RIJCOSX VERYSLOWCONV
|  3>
|  4> %scf
|  5>   AutoTRAHIter 200
|  6>   maxiter 400
|  7> end
|  8>
|  9>
| 10> %pal nprocs 6 end
| 11>
| 12> *xyzfile 0 6 pbe.xyz
| 13>
| 14> $new_job
| 15>
| 16> !RI-B2PLYP def2-TZVP def2-TZVP/C
| 17> !RIJCOSX VERYSLOWCONV
| 18>
| 19> %scf
| 20>   AutoTRAHIter 200
| 21>   maxiter 400
| 22> end
| 23>
| 24>
| 25> %pal nprocs 6 end
| 26>
| 27> *xyzfile 0 4 pbe.xyz
| 28>
| 29>
| 30>
| 31>
| 32>
| 33>                          ****END OF INPUT****
 Total Charge           Charge          ....    0
 Multiplicity           Mult            ....    6
 Number of Electrons    NEL             ....  253
MP2 TOTAL ENERGY:    -2777.874315037 Eh
FINAL SINGLE POINT ENERGY     -2777.874315036703

CARTESIAN COORDINATES (ANGSTROEM)
---------------------------------
  Au     9.121353    6.787251    6.002820
  Au     4.819747    6.438734    7.657259
  Au     5.305204    9.294607    7.237225
  Au     6.569836    7.069740    5.485500
  Au     3.891017    7.727508    5.469539
  Au     4.100976    5.994391   10.224760
  Au     6.732328    5.514526    9.559130
  Au     9.230099    5.695812    8.785905
  Au    11.380151    6.771933    7.516496
  Au     5.393603    8.382572    9.782510
  Au     7.472658   10.006541    8.850143
  Au     9.790585    8.864945    8.323878
  Mn     7.498866    7.536105    7.971652

 Multiplicity           Mult            ....    4
 Number of Electrons    NEL             ....  253
 Basis Dimension        Dim             ....  525

ORBITAL ENERGIES
----------------
                 SPIN UP ORBITALS
  NO   OCC          E(Eh)            E(eV)
   0   1.0000    -237.620349     -6465.9784
   1   1.0000     -28.125157      -765.3244
   2   1.0000     -24.042801      -654.2379
   3   1.0000     -24.042723      -654.2358
   4   1.0000     -24.042516      -654.2301
   5   1.0000      -4.420438      -120.2862
   6   1.0000      -4.410500      -120.0158
   7   1.0000      -4.410096      -120.0048
   8   1.0000      -4.405908      -119.8908
   9   1.0000      -4.396543      -119.6360
  10   1.0000      -4.394738      -119.5869
  11   1.0000      -4.391795      -119.5068
  12   1.0000      -4.391767      -119.5061
  13   1.0000      -4.389579      -119.4465
  14   1.0000      -4.388971      -119.4300
  15   1.0000      -4.385473      -119.3348
  16   1.0000      -4.385412      -119.3331
  17   1.0000      -3.603523       -98.0568
  18   1.0000      -2.540908       -69.1416
  19   1.0000      -2.539422       -69.1012
  20   1.0000      -2.534274       -68.9611
  21   1.0000      -2.532638       -68.9166
  22   1.0000      -2.529498       -68.8311
  23   1.0000      -2.528150       -68.7945
  24   1.0000      -2.527367       -68.7732
  25   1.0000      -2.527116       -68.7663
  26   1.0000      -2.526765       -68.7568
  27   1.0000      -2.524705       -68.7007
  28   1.0000      -2.524144       -68.6855
  29   1.0000      -2.518871       -68.5420
  30   1.0000      -2.517448       -68.5033
  31   1.0000      -2.516813       -68.4860
  32   1.0000      -2.515632       -68.4538
  33   1.0000      -2.514201       -68.4149
  34   1.0000      -2.513617       -68.3990
  35   1.0000      -2.511063       -68.3295
  36   1.0000      -2.510720       -68.3202
  37   1.0000      -2.510472       -68.3134
  38   1.0000      -2.509283       -68.2811
  39   1.0000      -2.509088       -68.2758
  40   1.0000      -2.508620       -68.2630
  41   1.0000      -2.507802       -68.2408
  42   1.0000      -2.505379       -68.1748
  43   1.0000      -2.504736       -68.1573
  44   1.0000      -2.503704       -68.1292
  45   1.0000      -2.503585       -68.1260
  46   1.0000      -2.503440       -68.1221
  47   1.0000      -2.503234       -68.1164
  48   1.0000      -2.501089       -68.0581
  49   1.0000      -2.500928       -68.0537
  50   1.0000      -2.500883       -68.0525
  51   1.0000      -2.499896       -68.0256
  52   1.0000      -2.499812       -68.0234
  53   1.0000      -2.499386       -68.0117
  54   1.0000      -2.405007       -65.4436
  55   1.0000      -2.404850       -65.4393
  56   1.0000      -2.404143       -65.4201
  57   1.0000      -0.517370       -14.0784
  58   1.0000      -0.512690       -13.9510
  59   1.0000      -0.509193       -13.8558
  60   1.0000      -0.508363       -13.8333
  61   1.0000      -0.504676       -13.7329
  62   1.0000      -0.486162       -13.2291
  63   1.0000      -0.479812       -13.0564
  64   1.0000      -0.474797       -12.9199
  65   1.0000      -0.466914       -12.7054
  66   1.0000      -0.464031       -12.6269
  67   1.0000      -0.460402       -12.5282
  68   1.0000      -0.457510       -12.4495
  69   1.0000      -0.456482       -12.4215
  70   1.0000      -0.450769       -12.2660
  71   1.0000      -0.444621       -12.0987
  72   1.0000      -0.441006       -12.0004
  73   1.0000      -0.439688       -11.9645
  74   1.0000      -0.439220       -11.9518
  75   1.0000      -0.438169       -11.9232
  76   1.0000      -0.436548       -11.8791
  77   1.0000      -0.433251       -11.7894
  78   1.0000      -0.426193       -11.5973
  79   1.0000      -0.423520       -11.5246
  80   1.0000      -0.419076       -11.4037
  81   1.0000      -0.412856       -11.2344
  82   1.0000      -0.410514       -11.1706
  83   1.0000      -0.406007       -11.0480
  84   1.0000      -0.405096       -11.0232
  85   1.0000      -0.401018       -10.9122
  86   1.0000      -0.400398       -10.8954
  87   1.0000      -0.396983       -10.8025
  88   1.0000      -0.396255       -10.7827
  89   1.0000      -0.393512       -10.7080
  90   1.0000      -0.390492       -10.6258
  91   1.0000      -0.386662       -10.5216
  92   1.0000      -0.386514       -10.5176
  93   1.0000      -0.383476       -10.4349
  94   1.0000      -0.382190       -10.3999
  95   1.0000      -0.381708       -10.3868
  96   1.0000      -0.379509       -10.3270
  97   1.0000      -0.376021       -10.2320
  98   1.0000      -0.374739       -10.1972
  99   1.0000      -0.372130       -10.1262
 100   1.0000      -0.371251       -10.1022
 101   1.0000      -0.371052       -10.0968
 102   1.0000      -0.370009       -10.0685
 103   1.0000      -0.367081        -9.9888
 104   1.0000      -0.366820        -9.9817
 105   1.0000      -0.366193        -9.9646
 106   1.0000      -0.363512        -9.8917
 107   1.0000      -0.360123        -9.7994
 108   1.0000      -0.358813        -9.7638
 109   1.0000      -0.358446        -9.7538
 110   1.0000      -0.356842        -9.7102
 111   1.0000      -0.356072        -9.6892
 112   1.0000      -0.355036        -9.6610
 113   1.0000      -0.349770        -9.5177
 114   1.0000      -0.348637        -9.4869
 115   1.0000      -0.346439        -9.4271
 116   1.0000      -0.341593        -9.2952
 117   1.0000      -0.341381        -9.2895
 118   1.0000      -0.340373        -9.2620
 119   1.0000      -0.334775        -9.1097
 120   1.0000      -0.329844        -8.9755
 121   1.0000      -0.326357        -8.8806
 122   1.0000      -0.325448        -8.8559
 123   1.0000      -0.306546        -8.3415
 124   1.0000      -0.303442        -8.2571
 125   1.0000      -0.294384        -8.0106
 126   1.0000      -0.242853        -6.6084
 127   1.0000      -0.224738        -6.1154
 128   0.0000      -0.133520        -3.6333
 129   0.0000      -0.080932        -2.2023
 130   0.0000      -0.080817        -2.1991
 131   0.0000      -0.072583        -1.9751
 132   0.0000      -0.065651        -1.7865

                 SPIN DOWN ORBITALS
  NO   OCC          E(Eh)            E(eV)
   0   1.0000    -237.618308     -6465.9229
   1   1.0000     -28.023981      -762.5713
   2   1.0000     -23.950243      -651.7192
   3   1.0000     -23.949744      -651.7057
   4   1.0000     -23.949342      -651.6947
   5   1.0000      -4.420152      -120.2784
   6   1.0000      -4.410686      -120.0209
   7   1.0000      -4.410258      -120.0092
   8   1.0000      -4.405510      -119.8800
   9   1.0000      -4.399118      -119.7061
  10   1.0000      -4.395448      -119.6062
  11   1.0000      -4.391608      -119.5017
  12   1.0000      -4.391580      -119.5010
  13   1.0000      -4.388604      -119.4200
  14   1.0000      -4.387884      -119.4004
  15   1.0000      -4.387371      -119.3864
  16   1.0000      -4.387279      -119.3839
  17   1.0000      -3.318920       -90.3124
  18   1.0000      -2.540107       -69.1198
  19   1.0000      -2.539472       -69.1026
  20   1.0000      -2.532975       -68.9257
  21   1.0000      -2.532363       -68.9091
  22   1.0000      -2.528922       -68.8155
  23   1.0000      -2.528314       -68.7989
  24   1.0000      -2.526778       -68.7571
  25   1.0000      -2.526117       -68.7391
  26   1.0000      -2.525064       -68.7105
  27   1.0000      -2.524118       -68.6848
  28   1.0000      -2.522969       -68.6535
  29   1.0000      -2.520214       -68.5785
  30   1.0000      -2.517625       -68.5080
  31   1.0000      -2.516411       -68.4750
  32   1.0000      -2.515523       -68.4509
  33   1.0000      -2.514777       -68.4306
  34   1.0000      -2.513567       -68.3976
  35   1.0000      -2.512468       -68.3677
  36   1.0000      -2.511690       -68.3466
  37   1.0000      -2.510510       -68.3145
  38   1.0000      -2.508826       -68.2686
  39   1.0000      -2.508619       -68.2630
  40   1.0000      -2.506949       -68.2175
  41   1.0000      -2.506617       -68.2085
  42   1.0000      -2.505983       -68.1913
  43   1.0000      -2.505361       -68.1743
  44   1.0000      -2.503916       -68.1350
  45   1.0000      -2.503405       -68.1211
  46   1.0000      -2.503367       -68.1201
  47   1.0000      -2.503331       -68.1191
  48   1.0000      -2.502435       -68.0947
  49   1.0000      -2.502272       -68.0903
  50   1.0000      -2.500987       -68.0553
  51   1.0000      -2.500810       -68.0505
  52   1.0000      -2.500202       -68.0339
  53   1.0000      -2.499119       -68.0045
  54   1.0000      -2.080062       -56.6014
  55   1.0000      -2.079076       -56.5745
  56   1.0000      -2.077394       -56.5288
  57   1.0000      -0.498537       -13.5659
  58   1.0000      -0.488543       -13.2939
  59   1.0000      -0.479256       -13.0412
  60   1.0000      -0.474049       -12.8995
  61   1.0000      -0.472112       -12.8468
  62   1.0000      -0.466203       -12.6860
  63   1.0000      -0.460626       -12.5343
  64   1.0000      -0.459843       -12.5130
  65   1.0000      -0.456657       -12.4263
  66   1.0000      -0.454282       -12.3616
  67   1.0000      -0.445940       -12.1346
  68   1.0000      -0.443918       -12.0796
  69   1.0000      -0.443034       -12.0556
  70   1.0000      -0.440603       -11.9894
  71   1.0000      -0.439409       -11.9569
  72   1.0000      -0.435946       -11.8627
  73   1.0000      -0.428633       -11.6637
  74   1.0000      -0.428025       -11.6471
  75   1.0000      -0.422322       -11.4920
  76   1.0000      -0.420082       -11.4310
  77   1.0000      -0.418388       -11.3849
  78   1.0000      -0.415540       -11.3074
  79   1.0000      -0.412494       -11.2245
  80   1.0000      -0.410668       -11.1749
  81   1.0000      -0.409838       -11.1523
  82   1.0000      -0.405675       -11.0390
  83   1.0000      -0.402725       -10.9587
  84   1.0000      -0.398529       -10.8445
  85   1.0000      -0.394631       -10.7385
  86   1.0000      -0.392062       -10.6685
  87   1.0000      -0.389235       -10.5916
  88   1.0000      -0.388424       -10.5695
  89   1.0000      -0.387053       -10.5322
  90   1.0000      -0.384236       -10.4556
  91   1.0000      -0.382928       -10.4200
  92   1.0000      -0.380985       -10.3671
  93   1.0000      -0.379475       -10.3260
  94   1.0000      -0.377526       -10.2730
  95   1.0000      -0.374433       -10.1888
  96   1.0000      -0.372868       -10.1463
  97   1.0000      -0.372589       -10.1386
  98   1.0000      -0.370379       -10.0785
  99   1.0000      -0.369262       -10.0481
 100   1.0000      -0.369037       -10.0420
 101   1.0000      -0.364293        -9.9129
 102   1.0000      -0.363975        -9.9043
 103   1.0000      -0.361978        -9.8499
 104   1.0000      -0.360379        -9.8064
 105   1.0000      -0.360177        -9.8009
 106   1.0000      -0.357767        -9.7353
 107   1.0000      -0.356947        -9.7130
 108   1.0000      -0.354010        -9.6331
 109   1.0000      -0.350827        -9.5465
 110   1.0000      -0.348327        -9.4785
 111   1.0000      -0.343209        -9.3392
 112   1.0000      -0.342380        -9.3166
 113   1.0000      -0.341130        -9.2826
 114   1.0000      -0.340895        -9.2762
 115   1.0000      -0.337140        -9.1740
 116   1.0000      -0.331785        -9.0283
 117   1.0000      -0.330527        -8.9941
 118   1.0000      -0.315183        -8.5766
 119   1.0000      -0.313819        -8.5395
 120   1.0000      -0.309440        -8.4203
 121   1.0000      -0.250310        -6.8113
 122   1.0000      -0.239907        -6.5282
 123   1.0000      -0.239644        -6.5210
 124   1.0000      -0.171509        -4.6670
 125   0.0000      -0.091600        -2.4926
 126   0.0000      -0.083138        -2.2623
 127   0.0000      -0.069892        -1.9018
 128   0.0000      -0.065379        -1.7790
 129   0.0000      -0.039777        -1.0824

MULLIKEN ATOMIC CHARGES AND SPIN POPULATIONS
--------------------------------------------
   0 Au:    0.044199   -0.012628
   1 Au:   -0.452173   -0.092573
   2 Au:    0.099374   -0.139494
   3 Au:    0.040910   -0.069209
   4 Au:    0.372049   -0.339333
   5 Au:    0.361853   -0.334651
   6 Au:    0.062085   -0.072218
   7 Au:    0.040711   -0.007875
   8 Au:    0.318323   -0.050455
   9 Au:    0.099251   -0.158282
  10 Au:    0.251187   -0.019798
  11 Au:    0.110228   -0.348513
  12 Mn:   -1.347994    4.645030
Sum of atomic charges         :    0.0000000

LOEWDIN ATOMIC CHARGES AND SPIN POPULATIONS
-------------------------------------------
   0 Au:   -0.039716   -0.026339
   1 Au:   -0.143426   -0.142614
   2 Au:   -0.002364   -0.128933
   3 Au:   -0.030563   -0.099782
   4 Au:    0.089520   -0.249376
   5 Au:    0.085797   -0.248812
   6 Au:   -0.026889   -0.099351
   7 Au:   -0.037334   -0.023069
   8 Au:    0.102763   -0.049715
   9 Au:    0.001187   -0.136591
  10 Au:    0.134680   -0.171067
  11 Au:    0.017274   -0.187158
  12 Mn:   -0.150928    4.562807

  Mayer bond orders larger than 0.100000
B(  0-Au,  3-Au) :   0.5628 B(  0-Au,  8-Au) :   0.2996 B(  0-Au, 12-Mn) :   0.4695
B(  1-Au,  2-Au) :   0.2538 B(  1-Au,  3-Au) :   0.1885 B(  1-Au,  4-Au) :   0.2870
B(  1-Au,  5-Au) :   0.2927 B(  1-Au,  6-Au) :   0.1872 B(  1-Au,  9-Au) :   0.2461
B(  1-Au, 12-Mn) :   0.3799 B(  2-Au,  3-Au) :   0.1265 B(  2-Au,  4-Au) :   0.3825
B(  2-Au,  9-Au) :   0.2856 B(  2-Au, 10-Au) :   0.2123 B(  2-Au, 12-Mn) :   0.2803
B(  3-Au,  4-Au) :   0.2749 B(  3-Au, 12-Mn) :   0.4762 B(  5-Au,  6-Au) :   0.2691
B(  5-Au,  9-Au) :   0.3917 B(  6-Au,  7-Au) :   0.5591 B(  6-Au,  9-Au) :   0.1134
B(  6-Au, 12-Mn) :   0.4764 B(  7-Au,  8-Au) :   0.2966 B(  7-Au, 12-Mn) :   0.4749
B(  8-Au, 11-Au) :   0.3768 B(  9-Au, 10-Au) :   0.2110 B(  9-Au, 12-Mn) :   0.2778
B( 10-Au, 11-Au) :   0.2978 B( 10-Au, 12-Mn) :   0.5016 B( 11-Au, 12-Mn) :   0.3342

MP2 TOTAL ENERGY:    -2777.834935650 Eh
FINAL SINGLE POINT ENERGY     -2777.834935649670

DIPOLE MOMENT
-------------
                                X             Y             Z
Electronic contribution:    -18.44283      -5.11446      -2.11321
Nuclear contribution   :     18.73347       5.71418       2.31836
                        -----------------------------------------
Total Dipole Moment    :      0.29064       0.59972       0.20515
                        -----------------------------------------
Magnitude (a.u.)       :      0.69729
Magnitude (Debye)      :      1.77238

Rotational constants in cm-1:     0.001608     0.000971     0.000892
Rotational constants in MHz :    48.201623    29.097495    26.750089

                             ****ORCA TERMINATED NORMALLY****
TOTAL RUN TIME: 0 days 0 hours 35 minutes 11 seconds 760 msec
