                         Program Version 5.0.3 -  RELEASE  -
|  1> !PBE def2-TZVP VERYSLOWCONV
|  2> !KDIIS
|  3>
|  4> %scf
|  5>   AutoTRAHIter 200
|  6>   maxiter 400
|  7> end
|  8>
|  9>
| 10> %pal nprocs 6 end
| 11>
| 12> *xyzfile 0 6 pbe.xyz
| 13>
| 14> $new_job
| 15>
| 16> !PBE def2-TZVP VERYSLOWCONV
| 17> !KDIIS
| 18>
| 19> %scf
| 20>   AutoTRAHIter 200
| 21>   maxiter 400
| 22> end
| 23>
| 24>
| 25> %pal nprocs 6 end
| 26>
| 27> *xyzfile 0 4 pbe.xyz
| 28>
| 29>
| 30>
| 31>
| 32>
| 33>                          ****END OF INPUT****
 Total Charge           Charge          ....    0
 Multiplicity           Mult            ....    6
 Number of Electrons    NEL             ....  253
FINAL SINGLE POINT ENERGY     -2780.709100279822

CARTESIAN COORDINATES (ANGSTROEM)
---------------------------------
  Au     9.121353    6.787251    6.002820
  Au     4.819747    6.438734    7.657259
  Au     5.305204    9.294607    7.237225
  Au     6.569836    7.069740    5.485500
  Au     3.891017    7.727508    5.469539
  Au     4.100976    5.994391   10.224760
  Au     6.732328    5.514526    9.559130
  Au     9.230099    5.695812    8.785905
  Au    11.380151    6.771933    7.516496
  Au     5.393603    8.382572    9.782510
  Au     7.472658   10.006541    8.850143
  Au     9.790585    8.864945    8.323878
  Mn     7.498866    7.536105    7.971652

 Multiplicity           Mult            ....    4
 Number of Electrons    NEL             ....  253
 Basis Dimension        Dim             ....  525

ORBITAL ENERGIES
----------------
                 SPIN UP ORBITALS
  NO   OCC          E(Eh)            E(eV)
   0   1.0000    -234.199682     -6372.8973
   1   1.0000     -26.896142      -731.8812
   2   1.0000     -23.046376      -627.1238
   3   1.0000     -23.043998      -627.0591
   4   1.0000     -23.043792      -627.0535
   5   1.0000      -4.041989      -109.9881
   6   1.0000      -4.033708      -109.7628
   7   1.0000      -4.033323      -109.7523
   8   1.0000      -4.028654      -109.6252
   9   1.0000      -4.027014      -109.5806
  10   1.0000      -4.023343      -109.4807
  11   1.0000      -4.023329      -109.4803
  12   1.0000      -4.023207      -109.4770
  13   1.0000      -4.020809      -109.4118
  14   1.0000      -4.020041      -109.3909
  15   1.0000      -4.018272      -109.3427
  16   1.0000      -4.018251      -109.3422
  17   1.0000      -3.103502       -84.4506
  18   1.0000      -2.258099       -61.4460
  19   1.0000      -2.257196       -61.4214
  20   1.0000      -2.252046       -61.2813
  21   1.0000      -2.251141       -61.2567
  22   1.0000      -2.249170       -61.2030
  23   1.0000      -2.246652       -61.1345
  24   1.0000      -2.245991       -61.1165
  25   1.0000      -2.245243       -61.0962
  26   1.0000      -2.244758       -61.0830
  27   1.0000      -2.244480       -61.0754
  28   1.0000      -2.243827       -61.0576
  29   1.0000      -2.243323       -61.0439
  30   1.0000      -2.242445       -61.0200
  31   1.0000      -2.241470       -60.9935
  32   1.0000      -2.240781       -60.9747
  33   1.0000      -2.239428       -60.9379
  34   1.0000      -2.237645       -60.8894
  35   1.0000      -2.237454       -60.8842
  36   1.0000      -2.236780       -60.8659
  37   1.0000      -2.236642       -60.8621
  38   1.0000      -2.236461       -60.8572
  39   1.0000      -2.235287       -60.8253
  40   1.0000      -2.234622       -60.8071
  41   1.0000      -2.234159       -60.7945
  42   1.0000      -2.233916       -60.7879
  43   1.0000      -2.233458       -60.7755
  44   1.0000      -2.233224       -60.7691
  45   1.0000      -2.232547       -60.7507
  46   1.0000      -2.230144       -60.6853
  47   1.0000      -2.229899       -60.6786
  48   1.0000      -2.229454       -60.6665
  49   1.0000      -2.229239       -60.6607
  50   1.0000      -2.227756       -60.6203
  51   1.0000      -2.227640       -60.6172
  52   1.0000      -2.225989       -60.5723
  53   1.0000      -2.224997       -60.5453
  54   1.0000      -2.009562       -54.6830
  55   1.0000      -2.005069       -54.5607
  56   1.0000      -2.003224       -54.5105
  57   1.0000      -0.419697       -11.4205
  58   1.0000      -0.390173       -10.6172
  59   1.0000      -0.384195       -10.4545
  60   1.0000      -0.380008       -10.3406
  61   1.0000      -0.373583       -10.1657
  62   1.0000      -0.370886       -10.0923
  63   1.0000      -0.366639        -9.9768
  64   1.0000      -0.364350        -9.9145
  65   1.0000      -0.351220        -9.5572
  66   1.0000      -0.350174        -9.5287
  67   1.0000      -0.345777        -9.4091
  68   1.0000      -0.340867        -9.2755
  69   1.0000      -0.339627        -9.2417
  70   1.0000      -0.337964        -9.1965
  71   1.0000      -0.335652        -9.1335
  72   1.0000      -0.333817        -9.0836
  73   1.0000      -0.331734        -9.0269
  74   1.0000      -0.330013        -8.9801
  75   1.0000      -0.327421        -8.9096
  76   1.0000      -0.327157        -8.9024
  77   1.0000      -0.321035        -8.7358
  78   1.0000      -0.318421        -8.6647
  79   1.0000      -0.318192        -8.6584
  80   1.0000      -0.317431        -8.6377
  81   1.0000      -0.312932        -8.5153
  82   1.0000      -0.305910        -8.3242
  83   1.0000      -0.305019        -8.3000
  84   1.0000      -0.300807        -8.1854
  85   1.0000      -0.295646        -8.0449
  86   1.0000      -0.294623        -8.0171
  87   1.0000      -0.293349        -7.9824
  88   1.0000      -0.292015        -7.9461
  89   1.0000      -0.288734        -7.8569
  90   1.0000      -0.286082        -7.7847
  91   1.0000      -0.285358        -7.7650
  92   1.0000      -0.282901        -7.6981
  93   1.0000      -0.282199        -7.6790
  94   1.0000      -0.280754        -7.6397
  95   1.0000      -0.280528        -7.6335
  96   1.0000      -0.278075        -7.5668
  97   1.0000      -0.276609        -7.5269
  98   1.0000      -0.275767        -7.5040
  99   1.0000      -0.274747        -7.4763
 100   1.0000      -0.273593        -7.4449
 101   1.0000      -0.270101        -7.3498
 102   1.0000      -0.269299        -7.3280
 103   1.0000      -0.268915        -7.3176
 104   1.0000      -0.267416        -7.2768
 105   1.0000      -0.264984        -7.2106
 106   1.0000      -0.264658        -7.2017
 107   1.0000      -0.263292        -7.1645
 108   1.0000      -0.261551        -7.1172
 109   1.0000      -0.259917        -7.0727
 110   1.0000      -0.258610        -7.0371
 111   1.0000      -0.256583        -6.9820
 112   1.0000      -0.255611        -6.9555
 113   1.0000      -0.253965        -6.9107
 114   1.0000      -0.251907        -6.8547
 115   1.0000      -0.249201        -6.7811
 116   1.0000      -0.247928        -6.7465
 117   1.0000      -0.247362        -6.7311
 118   1.0000      -0.245517        -6.6808
 119   1.0000      -0.244475        -6.6525
 120   1.0000      -0.244119        -6.6428
 121   1.0000      -0.239331        -6.5125
 122   1.0000      -0.238862        -6.4998
 123   1.0000      -0.234701        -6.3865
 124   1.0000      -0.234224        -6.3735
 125   1.0000      -0.225576        -6.1382
 126   1.0000      -0.217171        -5.9095
 127   1.0000      -0.200835        -5.4650
 128   0.0000      -0.193394        -5.2625
 129   0.0000      -0.150946        -4.1075
 130   0.0000      -0.147646        -4.0177
 131   0.0000      -0.139494        -3.7958
 132   0.0000      -0.131637        -3.5820

                 SPIN DOWN ORBITALS
  NO   OCC          E(Eh)            E(eV)
   0   1.0000    -234.198985     -6372.8784
   1   1.0000     -26.831613      -730.1253
   2   1.0000     -22.997539      -625.7948
   3   1.0000     -22.995991      -625.7527
   4   1.0000     -22.993615      -625.6881
   5   1.0000      -4.041276      -109.9687
   6   1.0000      -4.033761      -109.7642
   7   1.0000      -4.033358      -109.7532
   8   1.0000      -4.029989      -109.6616
   9   1.0000      -4.026258      -109.5600
  10   1.0000      -4.023547      -109.4863
  11   1.0000      -4.022985      -109.4710
  12   1.0000      -4.022841      -109.4671
  13   1.0000      -4.019870      -109.3862
  14   1.0000      -4.019289      -109.3704
  15   1.0000      -4.019253      -109.3694
  16   1.0000      -4.019007      -109.3627
  17   1.0000      -2.945172       -80.1422
  18   1.0000      -2.257616       -61.4329
  19   1.0000      -2.256228       -61.3951
  20   1.0000      -2.252078       -61.2821
  21   1.0000      -2.250849       -61.2487
  22   1.0000      -2.248801       -61.1930
  23   1.0000      -2.248313       -61.1797
  24   1.0000      -2.246260       -61.1238
  25   1.0000      -2.244619       -61.0792
  26   1.0000      -2.244435       -61.0742
  27   1.0000      -2.244226       -61.0685
  28   1.0000      -2.243352       -61.0447
  29   1.0000      -2.242866       -61.0315
  30   1.0000      -2.242687       -61.0266
  31   1.0000      -2.241888       -61.0049
  32   1.0000      -2.240625       -60.9705
  33   1.0000      -2.239133       -60.9299
  34   1.0000      -2.238607       -60.9156
  35   1.0000      -2.236742       -60.8648
  36   1.0000      -2.236417       -60.8560
  37   1.0000      -2.236082       -60.8469
  38   1.0000      -2.235996       -60.8445
  39   1.0000      -2.235166       -60.8220
  40   1.0000      -2.235062       -60.8191
  41   1.0000      -2.234626       -60.8073
  42   1.0000      -2.233791       -60.7845
  43   1.0000      -2.232880       -60.7598
  44   1.0000      -2.232649       -60.7535
  45   1.0000      -2.231785       -60.7299
  46   1.0000      -2.231071       -60.7105
  47   1.0000      -2.230830       -60.7040
  48   1.0000      -2.229317       -60.6628
  49   1.0000      -2.229100       -60.6569
  50   1.0000      -2.228702       -60.6461
  51   1.0000      -2.228590       -60.6430
  52   1.0000      -2.225329       -60.5543
  53   1.0000      -2.224275       -60.5256
  54   1.0000      -1.853783       -50.4440
  55   1.0000      -1.851567       -50.3837
  56   1.0000      -1.846217       -50.2381
  57   1.0000      -0.417922       -11.3722
  58   1.0000      -0.390352       -10.6220
  59   1.0000      -0.383647       -10.4396
  60   1.0000      -0.380258       -10.3473
  61   1.0000      -0.372077       -10.1247
  62   1.0000      -0.368014       -10.0142
  63   1.0000      -0.364628        -9.9220
  64   1.0000      -0.358768        -9.7626
  65   1.0000      -0.351381        -9.5616
  66   1.0000      -0.350200        -9.5294
  67   1.0000      -0.341842        -9.3020
  68   1.0000      -0.339068        -9.2265
  69   1.0000      -0.338349        -9.2069
  70   1.0000      -0.337494        -9.1837
  71   1.0000      -0.332816        -9.0564
  72   1.0000      -0.331916        -9.0319
  73   1.0000      -0.327964        -8.9244
  74   1.0000      -0.324626        -8.8335
  75   1.0000      -0.323302        -8.7975
  76   1.0000      -0.320168        -8.7122
  77   1.0000      -0.318957        -8.6793
  78   1.0000      -0.315457        -8.5840
  79   1.0000      -0.313845        -8.5401
  80   1.0000      -0.311119        -8.4660
  81   1.0000      -0.307683        -8.3725
  82   1.0000      -0.305245        -8.3061
  83   1.0000      -0.303922        -8.2702
  84   1.0000      -0.300065        -8.1652
  85   1.0000      -0.296637        -8.0719
  86   1.0000      -0.292779        -7.9669
  87   1.0000      -0.291869        -7.9421
  88   1.0000      -0.291290        -7.9264
  89   1.0000      -0.288723        -7.8566
  90   1.0000      -0.286109        -7.7854
  91   1.0000      -0.283152        -7.7050
  92   1.0000      -0.282774        -7.6947
  93   1.0000      -0.282598        -7.6899
  94   1.0000      -0.281084        -7.6487
  95   1.0000      -0.279214        -7.5978
  96   1.0000      -0.276516        -7.5244
  97   1.0000      -0.276428        -7.5220
  98   1.0000      -0.275276        -7.4906
  99   1.0000      -0.274819        -7.4782
 100   1.0000      -0.274492        -7.4693
 101   1.0000      -0.270605        -7.3635
 102   1.0000      -0.268565        -7.3080
 103   1.0000      -0.268025        -7.2933
 104   1.0000      -0.266659        -7.2562
 105   1.0000      -0.265420        -7.2224
 106   1.0000      -0.264131        -7.1874
 107   1.0000      -0.263985        -7.1834
 108   1.0000      -0.262231        -7.1357
 109   1.0000      -0.259537        -7.0624
 110   1.0000      -0.258743        -7.0408
 111   1.0000      -0.256740        -6.9862
 112   1.0000      -0.255026        -6.9396
 113   1.0000      -0.251860        -6.8534
 114   1.0000      -0.251093        -6.8326
 115   1.0000      -0.249292        -6.7836
 116   1.0000      -0.247413        -6.7324
 117   1.0000      -0.246620        -6.7109
 118   1.0000      -0.245114        -6.6699
 119   1.0000      -0.240467        -6.5434
 120   1.0000      -0.228554        -6.2193
 121   1.0000      -0.226443        -6.1618
 122   1.0000      -0.211648        -5.7592
 123   1.0000      -0.211285        -5.7494
 124   1.0000      -0.159381        -4.3370
 125   0.0000      -0.159423        -4.3381
 126   0.0000      -0.149768        -4.0754
 127   0.0000      -0.139414        -3.7937
 128   0.0000      -0.137724        -3.7477
 129   0.0000      -0.129456        -3.5227

MULLIKEN ATOMIC CHARGES AND SPIN POPULATIONS
--------------------------------------------
   0 Au:    0.066482    0.028978
   1 Au:   -0.388282   -0.166776
   2 Au:    0.095483   -0.099026
   3 Au:    0.091887   -0.020259
   4 Au:    0.410377   -0.236644
   5 Au:    0.400688   -0.235781
   6 Au:    0.105311   -0.024200
   7 Au:    0.061881    0.041513
   8 Au:    0.375313   -0.001055
   9 Au:    0.096137   -0.102995
  10 Au:    0.288337   -0.012625
  11 Au:    0.126991   -0.230634
  12 Mn:   -1.730605    4.059503
Sum of atomic charges         :    0.0000000

LOEWDIN ATOMIC CHARGES AND SPIN POPULATIONS
-------------------------------------------
   0 Au:    0.003956    0.015387
   1 Au:   -0.117560   -0.132411
   2 Au:    0.013302   -0.087639
   3 Au:    0.016437   -0.051976
   4 Au:    0.087105   -0.207332
   5 Au:    0.083038   -0.207526
   6 Au:    0.018724   -0.051989
   7 Au:    0.006310    0.022558
   8 Au:    0.077451   -0.020022
   9 Au:    0.019463   -0.087485
  10 Au:    0.138982   -0.090424
  11 Au:    0.039746   -0.116822
  12 Mn:   -0.386955    4.015681

  Mayer bond orders larger than 0.100000
B(  0-Au,  3-Au) :   0.5561 B(  0-Au,  7-Au) :   0.1323 B(  0-Au,  8-Au) :   0.3380
B(  0-Au, 11-Au) :   0.1101 B(  0-Au, 12-Mn) :   0.5283 B(  1-Au,  2-Au) :   0.2489
B(  1-Au,  3-Au) :   0.2157 B(  1-Au,  4-Au) :   0.3437 B(  1-Au,  5-Au) :   0.3477
B(  1-Au,  6-Au) :   0.2128 B(  1-Au,  9-Au) :   0.2454 B(  1-Au, 12-Mn) :   0.4640
B(  2-Au,  3-Au) :   0.1310 B(  2-Au,  4-Au) :   0.3976 B(  2-Au,  9-Au) :   0.3273
B(  2-Au, 10-Au) :   0.2530 B(  2-Au, 12-Mn) :   0.3417 B(  3-Au,  4-Au) :   0.2995
B(  3-Au, 12-Mn) :   0.5198 B(  5-Au,  6-Au) :   0.2990 B(  5-Au,  9-Au) :   0.3986
B(  6-Au,  7-Au) :   0.5530 B(  6-Au,  9-Au) :   0.1160 B(  6-Au, 12-Mn) :   0.5198
B(  7-Au,  8-Au) :   0.3375 B(  7-Au, 12-Mn) :   0.5344 B(  8-Au, 11-Au) :   0.3680
B(  9-Au, 10-Au) :   0.2504 B(  9-Au, 12-Mn) :   0.3415 B( 10-Au, 11-Au) :   0.3498
B( 10-Au, 12-Mn) :   0.5099 B( 11-Au, 12-Mn) :   0.4554

FINAL SINGLE POINT ENERGY     -2780.678271736096

DIPOLE MOMENT
-------------
                                X             Y             Z
Electronic contribution:    -18.60120      -5.27583      -2.16404
Nuclear contribution   :     18.73347       5.71418       2.31836
                        -----------------------------------------
Total Dipole Moment    :      0.13227       0.43835       0.15431
                        -----------------------------------------
Magnitude (a.u.)       :      0.48318
Magnitude (Debye)      :      1.22813

Rotational constants in cm-1:     0.001608     0.000971     0.000892
Rotational constants in MHz :    48.201623    29.097495    26.750089

                             ****ORCA TERMINATED NORMALLY****
TOTAL RUN TIME: 0 days 0 hours 5 minutes 11 seconds 74 msec
