                         Program Version 5.0.3 -  RELEASE  -
|  1> !R2SCAN def2-TZVP VERYSLOWCONV
|  2> !KDIIS
|  3> %scf
|  4>   AutoTRAHIter 200
|  5>   maxiter 400
|  6> end
|  7>
|  8> %pal nprocs 6 end
|  9>
| 10> *xyzfile 0 6 pbe.xyz
| 11>
| 12> $new_job
| 13>
| 14> !R2SCAN def2-TZVP VERYSLOWCONV
| 15> !KDIIS
| 16> %scf
| 17>   AutoTRAHIter 200
| 18>   maxiter 400
| 19> end
| 20>
| 21>
| 22> %pal nprocs 6 end
| 23>
| 24> *xyzfile 0 4 pbe.xyz
| 25>
| 26>
| 27>
| 28>
| 29>
| 30>                          ****END OF INPUT****
 Total Charge           Charge          ....    0
 Multiplicity           Mult            ....    6
 Number of Electrons    NEL             ....  253
FINAL SINGLE POINT ENERGY     -2781.160732845746

CARTESIAN COORDINATES (ANGSTROEM)
---------------------------------
  Au     9.121353    6.787251    6.002820
  Au     4.819747    6.438734    7.657259
  Au     5.305204    9.294607    7.237225
  Au     6.569836    7.069740    5.485500
  Au     3.891017    7.727508    5.469539
  Au     4.100976    5.994391   10.224760
  Au     6.732328    5.514526    9.559130
  Au     9.230099    5.695812    8.785905
  Au    11.380151    6.771933    7.516496
  Au     5.393603    8.382572    9.782510
  Au     7.472658   10.006541    8.850143
  Au     9.790585    8.864945    8.323878
  Mn     7.498866    7.536105    7.971652

 Multiplicity           Mult            ....    4
 Number of Electrons    NEL             ....  253
 Basis Dimension        Dim             ....  525

ORBITAL ENERGIES
----------------
                 SPIN UP ORBITALS
  NO   OCC          E(Eh)            E(eV)
   0   1.0000    -235.042762     -6395.8387
   1   1.0000     -27.223551      -740.7905
   2   1.0000     -23.270950      -633.2347
   3   1.0000     -23.269958      -633.2078
   4   1.0000     -23.269909      -633.2064
   5   1.0000      -4.136407      -112.5574
   6   1.0000      -4.126135      -112.2778
   7   1.0000      -4.125724      -112.2667
   8   1.0000      -4.120286      -112.1187
   9   1.0000      -4.118385      -112.0670
  10   1.0000      -4.115200      -111.9803
  11   1.0000      -4.113787      -111.9418
  12   1.0000      -4.113590      -111.9365
  13   1.0000      -4.111565      -111.8814
  14   1.0000      -4.110688      -111.8575
  15   1.0000      -4.108145      -111.7883
  16   1.0000      -4.108142      -111.7882
  17   1.0000      -3.244572       -88.2893
  18   1.0000      -2.325095       -63.2691
  19   1.0000      -2.324447       -63.2514
  20   1.0000      -2.317834       -63.0715
  21   1.0000      -2.317392       -63.0595
  22   1.0000      -2.314791       -62.9887
  23   1.0000      -2.311477       -62.8985
  24   1.0000      -2.311243       -62.8921
  25   1.0000      -2.310516       -62.8723
  26   1.0000      -2.309937       -62.8566
  27   1.0000      -2.308422       -62.8154
  28   1.0000      -2.307727       -62.7964
  29   1.0000      -2.307681       -62.7952
  30   1.0000      -2.307031       -62.7775
  31   1.0000      -2.306451       -62.7617
  32   1.0000      -2.303747       -62.6881
  33   1.0000      -2.303661       -62.6858
  34   1.0000      -2.300730       -62.6061
  35   1.0000      -2.300471       -62.5990
  36   1.0000      -2.300245       -62.5929
  37   1.0000      -2.299853       -62.5822
  38   1.0000      -2.299706       -62.5782
  39   1.0000      -2.299564       -62.5743
  40   1.0000      -2.299334       -62.5681
  41   1.0000      -2.298390       -62.5424
  42   1.0000      -2.297257       -62.5115
  43   1.0000      -2.296527       -62.4917
  44   1.0000      -2.296326       -62.4862
  45   1.0000      -2.295844       -62.4731
  46   1.0000      -2.292807       -62.3905
  47   1.0000      -2.292619       -62.3853
  48   1.0000      -2.292537       -62.3831
  49   1.0000      -2.292393       -62.3792
  50   1.0000      -2.290399       -62.3249
  51   1.0000      -2.290232       -62.3204
  52   1.0000      -2.289830       -62.3094
  53   1.0000      -2.288711       -62.2790
  54   1.0000      -2.102623       -57.2153
  55   1.0000      -2.100837       -57.1667
  56   1.0000      -2.099355       -57.1264
  57   1.0000      -0.426115       -11.5952
  58   1.0000      -0.398872       -10.8539
  59   1.0000      -0.391138       -10.6434
  60   1.0000      -0.387191       -10.5360
  61   1.0000      -0.383953       -10.4479
  62   1.0000      -0.382914       -10.4196
  63   1.0000      -0.376962       -10.2577
  64   1.0000      -0.376185       -10.2365
  65   1.0000      -0.361832        -9.8459
  66   1.0000      -0.360709        -9.8154
  67   1.0000      -0.358396        -9.7524
  68   1.0000      -0.354531        -9.6473
  69   1.0000      -0.351014        -9.5516
  70   1.0000      -0.347154        -9.4465
  71   1.0000      -0.346499        -9.4287
  72   1.0000      -0.344181        -9.3656
  73   1.0000      -0.343448        -9.3457
  74   1.0000      -0.340587        -9.2679
  75   1.0000      -0.339106        -9.2275
  76   1.0000      -0.338093        -9.2000
  77   1.0000      -0.332183        -9.0391
  78   1.0000      -0.330740        -8.9999
  79   1.0000      -0.329029        -8.9533
  80   1.0000      -0.326461        -8.8835
  81   1.0000      -0.322173        -8.7668
  82   1.0000      -0.315854        -8.5948
  83   1.0000      -0.314150        -8.5485
  84   1.0000      -0.311063        -8.4644
  85   1.0000      -0.305960        -8.3256
  86   1.0000      -0.304196        -8.2776
  87   1.0000      -0.302653        -8.2356
  88   1.0000      -0.301031        -8.1915
  89   1.0000      -0.297543        -8.0966
  90   1.0000      -0.295919        -8.0524
  91   1.0000      -0.294512        -8.0141
  92   1.0000      -0.293231        -7.9792
  93   1.0000      -0.290979        -7.9179
  94   1.0000      -0.290736        -7.9113
  95   1.0000      -0.289561        -7.8794
  96   1.0000      -0.288093        -7.8394
  97   1.0000      -0.285630        -7.7724
  98   1.0000      -0.284945        -7.7538
  99   1.0000      -0.283379        -7.7111
 100   1.0000      -0.281859        -7.6698
 101   1.0000      -0.280378        -7.6295
 102   1.0000      -0.278640        -7.5822
 103   1.0000      -0.277495        -7.5510
 104   1.0000      -0.275438        -7.4951
 105   1.0000      -0.274591        -7.4720
 106   1.0000      -0.273732        -7.4486
 107   1.0000      -0.271967        -7.4006
 108   1.0000      -0.269739        -7.3400
 109   1.0000      -0.268452        -7.3050
 110   1.0000      -0.267857        -7.2888
 111   1.0000      -0.266121        -7.2415
 112   1.0000      -0.264769        -7.2047
 113   1.0000      -0.263325        -7.1654
 114   1.0000      -0.261917        -7.1271
 115   1.0000      -0.261362        -7.1120
 116   1.0000      -0.258565        -7.0359
 117   1.0000      -0.257458        -7.0058
 118   1.0000      -0.255578        -6.9546
 119   1.0000      -0.254773        -6.9327
 120   1.0000      -0.253448        -6.8967
 121   1.0000      -0.246705        -6.7132
 122   1.0000      -0.246462        -6.7066
 123   1.0000      -0.245950        -6.6926
 124   1.0000      -0.245621        -6.6837
 125   1.0000      -0.231573        -6.3014
 126   1.0000      -0.221269        -6.0210
 127   1.0000      -0.203700        -5.5430
 128   0.0000      -0.194038        -5.2801
 129   0.0000      -0.147440        -4.0121
 130   0.0000      -0.141470        -3.8496
 131   0.0000      -0.135507        -3.6873
 132   0.0000      -0.126622        -3.4456

                 SPIN DOWN ORBITALS
  NO   OCC          E(Eh)            E(eV)
   0   1.0000    -235.041747     -6395.8111
   1   1.0000     -27.135896      -738.4053
   2   1.0000     -23.204107      -631.4159
   3   1.0000     -23.203213      -631.3915
   4   1.0000     -23.201777      -631.3524
   5   1.0000      -4.135923      -112.5442
   6   1.0000      -4.126323      -112.2830
   7   1.0000      -4.125893      -112.2713
   8   1.0000      -4.120413      -112.1221
   9   1.0000      -4.119624      -112.1007
  10   1.0000      -4.115585      -111.9908
  11   1.0000      -4.113488      -111.9337
  12   1.0000      -4.113287      -111.9282
  13   1.0000      -4.110611      -111.8554
  14   1.0000      -4.109613      -111.8282
  15   1.0000      -4.109603      -111.8280
  16   1.0000      -4.109582      -111.8274
  17   1.0000      -3.035281       -82.5942
  18   1.0000      -2.324637       -63.2566
  19   1.0000      -2.323629       -63.2292
  20   1.0000      -2.317401       -63.0597
  21   1.0000      -2.317124       -63.0522
  22   1.0000      -2.314682       -62.9857
  23   1.0000      -2.311844       -62.9085
  24   1.0000      -2.311586       -62.9015
  25   1.0000      -2.310084       -62.8606
  26   1.0000      -2.309934       -62.8565
  27   1.0000      -2.309674       -62.8494
  28   1.0000      -2.308061       -62.8055
  29   1.0000      -2.306804       -62.7713
  30   1.0000      -2.306123       -62.7528
  31   1.0000      -2.305798       -62.7439
  32   1.0000      -2.305059       -62.7238
  33   1.0000      -2.303625       -62.6848
  34   1.0000      -2.301776       -62.6345
  35   1.0000      -2.300725       -62.6059
  36   1.0000      -2.300038       -62.5872
  37   1.0000      -2.299487       -62.5722
  38   1.0000      -2.299178       -62.5638
  39   1.0000      -2.299070       -62.5609
  40   1.0000      -2.298499       -62.5453
  41   1.0000      -2.298202       -62.5373
  42   1.0000      -2.297706       -62.5238
  43   1.0000      -2.297195       -62.5099
  44   1.0000      -2.296120       -62.4806
  45   1.0000      -2.294929       -62.4482
  46   1.0000      -2.293905       -62.4203
  47   1.0000      -2.293684       -62.4143
  48   1.0000      -2.292666       -62.3866
  49   1.0000      -2.292377       -62.3788
  50   1.0000      -2.291567       -62.3567
  51   1.0000      -2.291455       -62.3537
  52   1.0000      -2.289153       -62.2910
  53   1.0000      -2.287944       -62.2581
  54   1.0000      -1.894760       -51.5590
  55   1.0000      -1.893917       -51.5361
  56   1.0000      -1.890144       -51.4334
  57   1.0000      -0.425066       -11.5666
  58   1.0000      -0.399767       -10.8782
  59   1.0000      -0.391026       -10.6404
  60   1.0000      -0.387428       -10.5425
  61   1.0000      -0.383622       -10.4389
  62   1.0000      -0.378865       -10.3094
  63   1.0000      -0.373416       -10.1612
  64   1.0000      -0.368069       -10.0157
  65   1.0000      -0.361781        -9.8446
  66   1.0000      -0.360076        -9.7982
  67   1.0000      -0.352321        -9.5872
  68   1.0000      -0.349120        -9.5000
  69   1.0000      -0.348760        -9.4902
  70   1.0000      -0.348339        -9.4788
  71   1.0000      -0.343229        -9.3397
  72   1.0000      -0.343060        -9.3351
  73   1.0000      -0.337610        -9.1868
  74   1.0000      -0.335339        -9.1251
  75   1.0000      -0.332393        -9.0449
  76   1.0000      -0.329608        -8.9691
  77   1.0000      -0.327774        -8.9192
  78   1.0000      -0.325526        -8.8580
  79   1.0000      -0.323390        -8.7999
  80   1.0000      -0.320235        -8.7140
  81   1.0000      -0.317724        -8.6457
  82   1.0000      -0.314552        -8.5594
  83   1.0000      -0.312736        -8.5100
  84   1.0000      -0.309842        -8.4312
  85   1.0000      -0.306770        -8.3476
  86   1.0000      -0.302138        -8.2216
  87   1.0000      -0.300670        -8.1816
  88   1.0000      -0.299990        -8.1631
  89   1.0000      -0.297887        -8.1059
  90   1.0000      -0.295278        -8.0349
  91   1.0000      -0.293094        -7.9755
  92   1.0000      -0.292295        -7.9537
  93   1.0000      -0.291658        -7.9364
  94   1.0000      -0.290728        -7.9111
  95   1.0000      -0.287836        -7.8324
  96   1.0000      -0.285278        -7.7628
  97   1.0000      -0.284738        -7.7481
  98   1.0000      -0.284090        -7.7305
  99   1.0000      -0.283822        -7.7232
 100   1.0000      -0.283203        -7.7063
 101   1.0000      -0.279739        -7.6121
 102   1.0000      -0.276927        -7.5356
 103   1.0000      -0.276611        -7.5270
 104   1.0000      -0.274818        -7.4782
 105   1.0000      -0.274584        -7.4718
 106   1.0000      -0.273040        -7.4298
 107   1.0000      -0.272880        -7.4254
 108   1.0000      -0.270715        -7.3665
 109   1.0000      -0.267545        -7.2803
 110   1.0000      -0.266522        -7.2524
 111   1.0000      -0.264954        -7.2098
 112   1.0000      -0.262996        -7.1565
 113   1.0000      -0.259301        -7.0559
 114   1.0000      -0.258653        -7.0383
 115   1.0000      -0.256704        -6.9853
 116   1.0000      -0.254932        -6.9370
 117   1.0000      -0.254166        -6.9162
 118   1.0000      -0.252948        -6.8831
 119   1.0000      -0.247666        -6.7393
 120   1.0000      -0.234637        -6.3848
 121   1.0000      -0.229021        -6.2320
 122   1.0000      -0.215400        -5.8613
 123   1.0000      -0.215008        -5.8507
 124   1.0000      -0.159082        -4.3288
 125   0.0000      -0.156690        -4.2638
 126   0.0000      -0.144714        -3.9379
 127   0.0000      -0.132340        -3.6011
 128   0.0000      -0.131194        -3.5700
 129   0.0000      -0.112216        -3.0536

MULLIKEN ATOMIC CHARGES AND SPIN POPULATIONS
--------------------------------------------
   0 Au:    0.061300    0.023989
   1 Au:   -0.392979   -0.173194
   2 Au:    0.103694   -0.106220
   3 Au:    0.082391   -0.023378
   4 Au:    0.368072   -0.304958
   5 Au:    0.358407   -0.300982
   6 Au:    0.097447   -0.028129
   7 Au:    0.053917    0.038075
   8 Au:    0.332133   -0.017423
   9 Au:    0.104593   -0.116083
  10 Au:    0.271796   -0.014930
  11 Au:    0.123588   -0.266601
  12 Mn:   -1.564360    4.289836
Sum of atomic charges         :   -0.0000000

LOEWDIN ATOMIC CHARGES AND SPIN POPULATIONS
-------------------------------------------
   0 Au:   -0.005707    0.006079
   1 Au:   -0.124356   -0.153141
   2 Au:    0.013930   -0.101096
   3 Au:    0.005726   -0.065325
   4 Au:    0.076419   -0.243031
   5 Au:    0.072656   -0.241782
   6 Au:    0.008198   -0.065084
   7 Au:   -0.004042    0.013821
   8 Au:    0.075045   -0.031118
   9 Au:    0.019078   -0.104037
  10 Au:    0.138415   -0.115218
  11 Au:    0.037171   -0.135592
  12 Mn:   -0.312533    4.235523

  Mayer bond orders larger than 0.100000
B(  0-Au,  3-Au) :   0.5692 B(  0-Au,  8-Au) :   0.3218 B(  0-Au, 12-Mn) :   0.5067
B(  1-Au,  2-Au) :   0.2255 B(  1-Au,  3-Au) :   0.1824 B(  1-Au,  4-Au) :   0.3090
B(  1-Au,  5-Au) :   0.3134 B(  1-Au,  6-Au) :   0.1810 B(  1-Au,  9-Au) :   0.2197
B(  1-Au, 12-Mn) :   0.4428 B(  2-Au,  3-Au) :   0.1118 B(  2-Au,  4-Au) :   0.4056
B(  2-Au,  9-Au) :   0.3209 B(  2-Au, 10-Au) :   0.2412 B(  2-Au, 12-Mn) :   0.3126
B(  3-Au,  4-Au) :   0.2921 B(  3-Au, 12-Mn) :   0.5168 B(  5-Au,  6-Au) :   0.2907
B(  5-Au,  9-Au) :   0.4099 B(  6-Au,  7-Au) :   0.5660 B(  6-Au, 12-Mn) :   0.5174
B(  7-Au,  8-Au) :   0.3208 B(  7-Au, 12-Mn) :   0.5141 B(  8-Au, 11-Au) :   0.3765
B(  9-Au, 10-Au) :   0.2385 B(  9-Au, 12-Mn) :   0.3112 B( 10-Au, 11-Au) :   0.3404
B( 10-Au, 12-Mn) :   0.5105 B( 11-Au, 12-Mn) :   0.4185

FINAL SINGLE POINT ENERGY     -2781.126440416800

DIPOLE MOMENT
-------------
                                X             Y             Z
Electronic contribution:    -18.52876      -5.18559      -2.13744
Nuclear contribution   :     18.73347       5.71418       2.31836
                        -----------------------------------------
Total Dipole Moment    :      0.20471       0.52859       0.18091
                        -----------------------------------------
Magnitude (a.u.)       :      0.59501
Magnitude (Debye)      :      1.51240

Rotational constants in cm-1:     0.001608     0.000971     0.000892
Rotational constants in MHz :    48.201623    29.097495    26.750089

                             ****ORCA TERMINATED NORMALLY****
TOTAL RUN TIME: 0 days 0 hours 7 minutes 16 seconds 797 msec
