                         Program Version 5.0.3 -  RELEASE  -
|  1> !CASSCF def2-TZVP def2-TZVP/C
|  2> !MOREAD RIJCOSX
|  3> %maxcore 6000
|  4> %moinp "pbe.qro"
|  5> %pal nprocs 2 end
|  6>
|  7> %casscf
|  8>  mult 5,3
|  9>  bweight 1,1
| 10>  nroots 5,45
| 11>  nel 6
| 12>  norb 5
| 13> end
| 14>
| 15>
| 16> *xyzfile 0 5 pbe.xyz
| 17>
| 18>
| 19>                          ****END OF INPUT****

CARTESIAN COORDINATES (ANGSTROEM)
---------------------------------
  Au     7.906042   10.145211    8.678672
  Au     4.890535    7.775164    6.130346
  Au    10.042471    7.184934    4.766870
  Au    11.257324    7.344692    7.381809
  Au     9.370920    9.210146    6.547045
  Au     7.335871    7.413834    4.870400
  Au     6.744672    9.937294    6.128250
  Au     9.052897    5.720642    6.915451
  Au     6.337011    5.367212    6.665146
  Au     6.846473    8.084630   10.347899
  Au     5.173981    9.443895    8.449295
  Au     7.522423    5.566566    9.204852
  Au     4.928526    6.641748    8.766414
  Au     9.408508    7.745616    9.335835
  Fe     7.245842    7.737485    7.615433

 Total Charge           Charge          ....    0
 Multiplicity           Mult            ....    5
 Number of Electrons    NEL             ....  292
 Basis Dimension        Dim             ....  605

ORBITAL ENERGIES
----------------

  NO   OCC          E(Eh)            E(eV)
   0   2.0000    -261.404146     -7113.1684
   1   2.0000     -31.965402      -869.8228
   2   2.0000     -27.445638      -746.8338
   3   2.0000     -27.445469      -746.8292
   4   2.0000     -27.445458      -746.8289
   5   2.0000      -4.730159      -128.7142
   6   2.0000      -4.730019      -128.7104
   7   2.0000      -4.729242      -128.6892
   8   2.0000      -4.729078      -128.6848
   9   2.0000      -4.717283      -128.3638
  10   2.0000      -4.717183      -128.3611
  11   2.0000      -4.716458      -128.3414
  12   2.0000      -4.716448      -128.3411
  13   2.0000      -4.714762      -128.2952
  14   2.0000      -4.714744      -128.2947
  15   2.0000      -4.708988      -128.1381
  16   2.0000      -4.708826      -128.1337
  17   2.0000      -4.703103      -127.9780
  18   2.0000      -4.702718      -127.9675
  19   2.0000      -4.199472      -114.2734
  20   2.0000      -2.780510       -75.6615
  21   2.0000      -2.779397       -75.6312
  22   2.0000      -2.777994       -75.5931
  23   2.0000      -2.771611       -75.4194
  24   2.0000      -2.769949       -75.3741
  25   2.0000      -2.768872       -75.3448
  26   2.0000      -2.768163       -75.3256
  27   2.0000      -2.766816       -75.2889
  28   2.0000      -2.766611       -75.2833
  29   2.0000      -2.766135       -75.2704
  30   2.0000      -2.766030       -75.2675
  31   2.0000      -2.765042       -75.2406
  32   2.0000      -2.764889       -75.2365
  33   2.0000      -2.763514       -75.1990
  34   2.0000      -2.763434       -75.1969
  35   2.0000      -2.756200       -75.0000
  36   2.0000      -2.755888       -74.9915
  37   2.0000      -2.753530       -74.9274
  38   2.0000      -2.753367       -74.9229
  39   2.0000      -2.752108       -74.8887
  40   2.0000      -2.752005       -74.8859
  41   2.0000      -2.751855       -74.8818
  42   2.0000      -2.751733       -74.8785
  43   2.0000      -2.751572       -74.8741
  44   2.0000      -2.751218       -74.8645
  45   2.0000      -2.750032       -74.8322
  46   2.0000      -2.749974       -74.8306
  47   2.0000      -2.749956       -74.8301
  48   2.0000      -2.749936       -74.8296
  49   2.0000      -2.748737       -74.7969
  50   2.0000      -2.748286       -74.7847
  51   2.0000      -2.747822       -74.7720
  52   2.0000      -2.747672       -74.7680
  53   2.0000      -2.745731       -74.7151
  54   2.0000      -2.745242       -74.7018
  55   2.0000      -2.744299       -74.6762
  56   2.0000      -2.742751       -74.6341
  57   2.0000      -2.742395       -74.6244
  58   2.0000      -2.740567       -74.5746
  59   2.0000      -2.739730       -74.5518
  60   2.0000      -2.739011       -74.5323
  61   2.0000      -2.738586       -74.5207
  62   2.0000      -2.737196       -74.4829
  63   2.0000      -2.736781       -74.4716
  64   2.0000      -2.736401       -74.4612
  65   2.0000      -0.604015       -16.4361
  66   2.0000      -0.567039       -15.4299
  67   2.0000      -0.564390       -15.3578
  68   2.0000      -0.557337       -15.1659
  69   2.0000      -0.557220       -15.1627
  70   2.0000      -0.554491       -15.0885
  71   2.0000      -0.552478       -15.0337
  72   2.0000      -0.550591       -14.9824
  73   2.0000      -0.548867       -14.9354
  74   2.0000      -0.548756       -14.9324
  75   2.0000      -0.547293       -14.8926
  76   2.0000      -0.546586       -14.8734
  77   2.0000      -0.543530       -14.7902
  78   2.0000      -0.543407       -14.7869
  79   2.0000      -0.543190       -14.7809
  80   2.0000      -0.542413       -14.7598
  81   2.0000      -0.537289       -14.6204
  82   2.0000      -0.537102       -14.6153
  83   2.0000      -0.536290       -14.5932
  84   2.0000      -0.532850       -14.4996
  85   2.0000      -0.528428       -14.3793
  86   2.0000      -0.525504       -14.2997
  87   2.0000      -0.523906       -14.2562
  88   2.0000      -0.522949       -14.2302
  89   2.0000      -0.520673       -14.1682
  90   2.0000      -0.512566       -13.9476
  91   2.0000      -0.506167       -13.7735
  92   2.0000      -0.505239       -13.7483
  93   2.0000      -0.499856       -13.6018
  94   2.0000      -0.499715       -13.5979
  95   2.0000      -0.499373       -13.5886
  96   2.0000      -0.496503       -13.5105
  97   2.0000      -0.492828       -13.4105
  98   2.0000      -0.490103       -13.3364
  99   2.0000      -0.487979       -13.2786
 100   2.0000      -0.485040       -13.1986
 101   2.0000      -0.472902       -12.8683
 102   2.0000      -0.470742       -12.8095
 103   2.0000      -0.470478       -12.8024
 104   2.0000      -0.461372       -12.5546
 105   2.0000      -0.459997       -12.5171
 106   2.0000      -0.459043       -12.4912
 107   2.0000      -0.458799       -12.4845
 108   2.0000      -0.457865       -12.4591
 109   2.0000      -0.456578       -12.4241
 110   2.0000      -0.453379       -12.3371
 111   2.0000      -0.453349       -12.3363
 112   2.0000      -0.450831       -12.2677
 113   2.0000      -0.450701       -12.2642
 114   2.0000      -0.450493       -12.2585
 115   2.0000      -0.450166       -12.2496
 116   2.0000      -0.447148       -12.1675
 117   2.0000      -0.445124       -12.1124
 118   2.0000      -0.443281       -12.0623
 119   2.0000      -0.440562       -11.9883
 120   2.0000      -0.438595       -11.9348
 121   2.0000      -0.437323       -11.9002
 122   2.0000      -0.437119       -11.8946
 123   2.0000      -0.432094       -11.7579
 124   2.0000      -0.431413       -11.7393
 125   2.0000      -0.430923       -11.7260
 126   2.0000      -0.430175       -11.7056
 127   2.0000      -0.428158       -11.6508
 128   2.0000      -0.426045       -11.5933
 129   2.0000      -0.423352       -11.5200
 130   2.0000      -0.421181       -11.4609
 131   2.0000      -0.417662       -11.3652
 132   2.0000      -0.413530       -11.2527
 133   2.0000      -0.410283       -11.1644
 134   2.0000      -0.394051       -10.7227
 135   2.0000      -0.392318       -10.6755
 136   2.0000      -0.380872       -10.3640
 137   2.0000      -0.351833        -9.5739
 138   2.0000      -0.350729        -9.5438
 139   2.0000      -0.257742        -7.0135
 140   2.0000      -0.237340        -6.4584
 141   2.0000      -0.236937        -6.4474
 142   2.0000      -0.223156        -6.0724
 143   1.2000      -0.275440        -7.4951
 144   1.2000      -0.282127        -7.6771
 145   1.2000      -0.273112        -7.4317
 146   1.2000      -0.271056        -7.3758
 147   1.2000      -0.275092        -7.4856
 148   0.0000      -0.059293        -1.6134
 149   0.0000      -0.023480        -0.6389
 150   0.0000      -0.004619        -0.1257
 151   0.0000      -0.000629        -0.0171
 152   0.0000       0.011118         0.3025

MULLIKEN ATOMIC CHARGES AND SPIN DENSITIES
------------------------------------------
   0 Au:    0.469735    0.006055
   1 Au:    0.231777    0.007300
   2 Au:    0.381797    0.003672
   3 Au:    0.384259    0.003667
   4 Au:   -0.323309    0.009805
   5 Au:   -0.150113    0.009185
   6 Au:    0.492720    0.005936
   7 Au:   -0.322922    0.009814
   8 Au:    0.472184    0.006087
   9 Au:    0.232357    0.007338
  10 Au:    0.120168    0.007464
  11 Au:    0.490598    0.005910
  12 Au:    0.120160    0.007474
  13 Au:   -0.149404    0.009190
  14 Fe:   -2.450007    2.901104
Sum of atomic charges       :    0.0000000

LOEWDIN ATOMIC CHARGES AND SPIN DENSITIES
-----------------------------------------
   0 Au:    0.071918    0.008676
   1 Au:    0.047144    0.009140
   2 Au:    0.078466    0.004794
   3 Au:    0.080730    0.004786
   4 Au:   -0.095220    0.011193
   5 Au:   -0.016300    0.010968
   6 Au:    0.071054    0.008666
   7 Au:   -0.095326    0.011201
   8 Au:    0.072184    0.008720
   9 Au:    0.046603    0.009172
  10 Au:    0.005275    0.008798
  11 Au:    0.070881    0.008627
  12 Au:    0.005335    0.008808
  13 Au:   -0.016481    0.010985
  14 Fe:   -0.326260    2.875467

  Mayer bond orders larger than 0.100000
B(  0-Au,  4-Au) :   0.2303 B(  0-Au,  6-Au) :   0.2070 B(  0-Au, 10-Au) :   0.1834
B(  0-Au, 14-Fe) :   0.3486 B(  1-Au,  5-Au) :   0.3024 B(  1-Au,  6-Au) :   0.1116
B(  1-Au, 10-Au) :   0.1312 B(  1-Au, 12-Au) :   0.1332 B(  1-Au, 14-Fe) :   0.3790
B(  2-Au,  3-Au) :   0.1134 B(  2-Au,  4-Au) :   0.2394 B(  2-Au,  5-Au) :   0.3351
B(  2-Au,  7-Au) :   0.2364 B(  3-Au,  4-Au) :   0.2370 B(  3-Au,  7-Au) :   0.2401
B(  3-Au, 13-Au) :   0.3351 B(  4-Au,  5-Au) :   0.1357 B(  4-Au,  6-Au) :   0.2130
B(  4-Au,  7-Au) :   0.1880 B(  4-Au, 13-Au) :   0.1328 B(  4-Au, 14-Fe) :   0.4307
B(  5-Au,  7-Au) :   0.1319 B(  5-Au, 14-Fe) :   0.4754 B(  6-Au, 10-Au) :   0.1633
B(  6-Au, 14-Fe) :   0.3420 B(  7-Au,  8-Au) :   0.2311 B(  7-Au, 11-Au) :   0.2120
B(  7-Au, 13-Au) :   0.1369 B(  7-Au, 14-Fe) :   0.4309 B(  8-Au, 11-Au) :   0.2070
B(  8-Au, 12-Au) :   0.1807 B(  8-Au, 14-Fe) :   0.3482 B(  9-Au, 10-Au) :   0.1328
B(  9-Au, 11-Au) :   0.1119 B(  9-Au, 12-Au) :   0.1304 B(  9-Au, 13-Au) :   0.3021
B(  9-Au, 14-Fe) :   0.3795 B( 10-Au, 12-Au) :   0.1251 B( 10-Au, 14-Fe) :   0.4110
B( 11-Au, 12-Au) :   0.1663 B( 11-Au, 14-Fe) :   0.3423 B( 12-Au, 14-Fe) :   0.4112
B( 13-Au, 14-Fe) :   0.4750

FINAL SINGLE POINT ENERGY     -3149.720128951891

DIPOLE MOMENT
-------------
                                X             Y             Z
Electronic contribution:     14.62523      -2.02159      -6.60292
Nuclear contribution   :    -14.66029       2.02678       6.62067
                        -----------------------------------------
Total Dipole Moment    :     -0.03506       0.00519       0.01776
                        -----------------------------------------
Magnitude (a.u.)       :      0.03964
Magnitude (Debye)      :      0.10076

Rotational constants in cm-1:     0.001284     0.000989     0.000950
Rotational constants in MHz :    38.485350    29.651388    28.493723

                             ****ORCA TERMINATED NORMALLY****
TOTAL RUN TIME: 0 days 0 hours 36 minutes 31 seconds 920 msec
