                         Program Version 5.0.3 -  RELEASE  -
|  1> %pal nprocs 1 end
|  2>
|  3> !PBE def2-TZVP OPT UNO
|  4> !SLOWCONV KDIIS
|  5>
|  6> %geom maxiter 300 end
|  7>
|  8> *xyzfile 0 5 4.xyz                           ****END OF INPUT****
 Total Charge           Charge          ....    0
 Multiplicity           Mult            ....    5
 Number of Electrons    NEL             ....  252
FINAL SINGLE POINT ENERGY     -2674.148361191249
FINAL SINGLE POINT ENERGY     -2674.150600469218
FINAL SINGLE POINT ENERGY     -2674.151595974506
FINAL SINGLE POINT ENERGY     -2674.152219831212
FINAL SINGLE POINT ENERGY     -2674.152569125928
FINAL SINGLE POINT ENERGY     -2674.152822321407
FINAL SINGLE POINT ENERGY     -2674.152942835446
FINAL SINGLE POINT ENERGY     -2674.152990149557
FINAL SINGLE POINT ENERGY     -2674.153002738109
FINAL SINGLE POINT ENERGY     -2674.153009689431
FINAL SINGLE POINT ENERGY     -2674.153017923330
FINAL SINGLE POINT ENERGY     -2674.153028297633
FINAL SINGLE POINT ENERGY     -2674.153034548804
FINAL SINGLE POINT ENERGY     -2674.153039710447
FINAL SINGLE POINT ENERGY     -2674.153043009159
FINAL SINGLE POINT ENERGY     -2674.153045483964
FINAL SINGLE POINT ENERGY     -2674.153047322623
                    ***********************HURRAY********************

CARTESIAN COORDINATES (ANGSTROEM)
---------------------------------
  Au     6.287668    7.829563   10.808696
  Au     6.496921   10.211340    9.433466
  Au     8.160671    5.844223   10.252461
  Au     9.309371    8.455637   10.251525
  Au     9.051277   10.083757    8.123070
  Au     4.874714    8.085624    8.423065
  Au     8.630047   10.488136    5.374669
  Au     8.656015    5.547804    7.499630
  Au     9.015610    7.884135    6.123113
  Au     6.243160    6.663736    6.441959
  Au     6.336932    9.398152    6.453652
  Au     6.984507   11.916855    7.324548
  Cr     7.577649    7.791260    8.450181

 Multiplicity           Mult            ....    5
 Number of Electrons    NEL             ....  252
 Basis Dimension        Dim             ....  525

ORBITAL ENERGIES
----------------
                 SPIN UP ORBITALS
  NO   OCC          E(Eh)            E(eV)
   0   1.0000    -214.484591     -5836.4224
   1   1.0000     -24.286443      -660.8677
   2   1.0000     -20.652165      -561.9740
   3   1.0000     -20.650725      -561.9348
   4   1.0000     -20.645955      -561.8050
   5   1.0000      -4.035093      -109.8005
   6   1.0000      -4.031837      -109.7119
   7   1.0000      -4.030774      -109.6829
   8   1.0000      -4.027414      -109.5915
   9   1.0000      -4.024552      -109.5136
  10   1.0000      -4.024304      -109.5069
  11   1.0000      -4.022188      -109.4493
  12   1.0000      -4.020656      -109.4076
  13   1.0000      -4.018610      -109.3519
  14   1.0000      -4.017386      -109.3186
  15   1.0000      -4.014781      -109.2478
  16   1.0000      -4.010813      -109.1398
  17   1.0000      -2.791744       -75.9672
  18   1.0000      -2.253968       -61.3336
  19   1.0000      -2.249121       -61.2017
  20   1.0000      -2.247192       -61.1492
  21   1.0000      -2.245775       -61.1107
  22   1.0000      -2.245377       -61.0998
  23   1.0000      -2.244986       -61.0892
  24   1.0000      -2.244910       -61.0871
  25   1.0000      -2.243783       -61.0564
  26   1.0000      -2.241992       -61.0077
  27   1.0000      -2.241793       -61.0023
  28   1.0000      -2.240968       -60.9798
  29   1.0000      -2.240100       -60.9562
  30   1.0000      -2.239601       -60.9426
  31   1.0000      -2.239303       -60.9345
  32   1.0000      -2.238256       -60.9060
  33   1.0000      -2.236887       -60.8688
  34   1.0000      -2.236591       -60.8607
  35   1.0000      -2.236497       -60.8582
  36   1.0000      -2.235821       -60.8398
  37   1.0000      -2.235646       -60.8350
  38   1.0000      -2.234290       -60.7981
  39   1.0000      -2.233772       -60.7840
  40   1.0000      -2.233022       -60.7636
  41   1.0000      -2.232447       -60.7480
  42   1.0000      -2.230874       -60.7052
  43   1.0000      -2.230547       -60.6963
  44   1.0000      -2.230419       -60.6928
  45   1.0000      -2.230033       -60.6823
  46   1.0000      -2.229746       -60.6745
  47   1.0000      -2.229452       -60.6665
  48   1.0000      -2.226630       -60.5897
  49   1.0000      -2.226511       -60.5864
  50   1.0000      -2.225678       -60.5638
  51   1.0000      -2.224184       -60.5231
  52   1.0000      -2.223424       -60.5024
  53   1.0000      -2.220267       -60.4165
  54   1.0000      -1.785314       -48.5809
  55   1.0000      -1.782982       -48.5174
  56   1.0000      -1.776632       -48.3446
  57   1.0000      -0.422243       -11.4898
  58   1.0000      -0.385474       -10.4893
  59   1.0000      -0.381332       -10.3766
  60   1.0000      -0.376651       -10.2492
  61   1.0000      -0.364969        -9.9313
  62   1.0000      -0.361577        -9.8390
  63   1.0000      -0.358787        -9.7631
  64   1.0000      -0.355760        -9.6807
  65   1.0000      -0.349655        -9.5146
  66   1.0000      -0.347211        -9.4481
  67   1.0000      -0.345622        -9.4048
  68   1.0000      -0.341429        -9.2908
  69   1.0000      -0.338490        -9.2108
  70   1.0000      -0.338201        -9.2029
  71   1.0000      -0.336277        -9.1506
  72   1.0000      -0.332015        -9.0346
  73   1.0000      -0.331095        -9.0096
  74   1.0000      -0.327079        -8.9003
  75   1.0000      -0.324976        -8.8430
  76   1.0000      -0.323263        -8.7964
  77   1.0000      -0.322075        -8.7641
  78   1.0000      -0.317885        -8.6501
  79   1.0000      -0.316908        -8.6235
  80   1.0000      -0.313375        -8.5274
  81   1.0000      -0.311192        -8.4680
  82   1.0000      -0.309487        -8.4216
  83   1.0000      -0.307309        -8.3623
  84   1.0000      -0.302054        -8.2193
  85   1.0000      -0.299165        -8.1407
  86   1.0000      -0.294234        -8.0065
  87   1.0000      -0.292933        -7.9711
  88   1.0000      -0.289577        -7.8798
  89   1.0000      -0.287674        -7.8280
  90   1.0000      -0.285620        -7.7721
  91   1.0000      -0.282089        -7.6760
  92   1.0000      -0.279521        -7.6062
  93   1.0000      -0.279088        -7.5944
  94   1.0000      -0.278004        -7.5649
  95   1.0000      -0.275919        -7.5081
  96   1.0000      -0.275217        -7.4890
  97   1.0000      -0.274799        -7.4777
  98   1.0000      -0.272166        -7.4060
  99   1.0000      -0.270992        -7.3741
 100   1.0000      -0.269783        -7.3412
 101   1.0000      -0.269393        -7.3306
 102   1.0000      -0.266661        -7.2562
 103   1.0000      -0.266230        -7.2445
 104   1.0000      -0.264297        -7.1919
 105   1.0000      -0.263635        -7.1739
 106   1.0000      -0.262475        -7.1423
 107   1.0000      -0.259153        -7.0519
 108   1.0000      -0.255933        -6.9643
 109   1.0000      -0.255860        -6.9623
 110   1.0000      -0.254759        -6.9323
 111   1.0000      -0.252501        -6.8709
 112   1.0000      -0.250645        -6.8204
 113   1.0000      -0.250364        -6.8127
 114   1.0000      -0.248763        -6.7692
 115   1.0000      -0.244030        -6.6404
 116   1.0000      -0.243145        -6.6163
 117   1.0000      -0.241992        -6.5849
 118   1.0000      -0.240718        -6.5503
 119   1.0000      -0.239030        -6.5043
 120   1.0000      -0.235557        -6.4098
 121   1.0000      -0.214221        -5.8292
 122   1.0000      -0.211879        -5.7655
 123   1.0000      -0.210344        -5.7238
 124   1.0000      -0.206002        -5.6056
 125   1.0000      -0.198688        -5.4066
 126   1.0000      -0.184344        -5.0162
 127   1.0000      -0.182286        -4.9602
 128   0.0000      -0.164641        -4.4801
 129   0.0000      -0.155459        -4.2302
 130   0.0000      -0.152447        -4.1483
 131   0.0000      -0.132851        -3.6151
 132   0.0000      -0.123152        -3.3511

                 SPIN DOWN ORBITALS
  NO   OCC          E(Eh)            E(eV)
   0   1.0000    -214.484151     -5836.4105
   1   1.0000     -24.239589      -659.5928
   2   1.0000     -20.618597      -561.0606
   3   1.0000     -20.616068      -560.9917
   4   1.0000     -20.606766      -560.7386
   5   1.0000      -4.033806      -109.7654
   6   1.0000      -4.030808      -109.6839
   7   1.0000      -4.029589      -109.6507
   8   1.0000      -4.025971      -109.5522
   9   1.0000      -4.023715      -109.4908
  10   1.0000      -4.023381      -109.4818
  11   1.0000      -4.021136      -109.4207
  12   1.0000      -4.019411      -109.3737
  13   1.0000      -4.018155      -109.3396
  14   1.0000      -4.016318      -109.2896
  15   1.0000      -4.014444      -109.2386
  16   1.0000      -4.009594      -109.1066
  17   1.0000      -2.665184       -72.5233
  18   1.0000      -2.252332       -61.2891
  19   1.0000      -2.247679       -61.1624
  20   1.0000      -2.245873       -61.1133
  21   1.0000      -2.244358       -61.0721
  22   1.0000      -2.244007       -61.0625
  23   1.0000      -2.243789       -61.0566
  24   1.0000      -2.243039       -61.0362
  25   1.0000      -2.242858       -61.0313
  26   1.0000      -2.240932       -60.9789
  27   1.0000      -2.240768       -60.9744
  28   1.0000      -2.239897       -60.9507
  29   1.0000      -2.238925       -60.9243
  30   1.0000      -2.238184       -60.9041
  31   1.0000      -2.237908       -60.8966
  32   1.0000      -2.237171       -60.8765
  33   1.0000      -2.236026       -60.8454
  34   1.0000      -2.235495       -60.8309
  35   1.0000      -2.234957       -60.8163
  36   1.0000      -2.234409       -60.8014
  37   1.0000      -2.234164       -60.7947
  38   1.0000      -2.233541       -60.7777
  39   1.0000      -2.232841       -60.7587
  40   1.0000      -2.232269       -60.7431
  41   1.0000      -2.231465       -60.7212
  42   1.0000      -2.230104       -60.6842
  43   1.0000      -2.229977       -60.6808
  44   1.0000      -2.229646       -60.6717
  45   1.0000      -2.229322       -60.6629
  46   1.0000      -2.229062       -60.6558
  47   1.0000      -2.228595       -60.6431
  48   1.0000      -2.226349       -60.5820
  49   1.0000      -2.225327       -60.5542
  50   1.0000      -2.224679       -60.5366
  51   1.0000      -2.223123       -60.4942
  52   1.0000      -2.222350       -60.4732
  53   1.0000      -2.219241       -60.3886
  54   1.0000      -1.667949       -45.3872
  55   1.0000      -1.661935       -45.2235
  56   1.0000      -1.640802       -44.6485
  57   1.0000      -0.415826       -11.3152
  58   1.0000      -0.381195       -10.3728
  59   1.0000      -0.378612       -10.3026
  60   1.0000      -0.373381       -10.1602
  61   1.0000      -0.361460        -9.8358
  62   1.0000      -0.359348        -9.7783
  63   1.0000      -0.355318        -9.6687
  64   1.0000      -0.350855        -9.5473
  65   1.0000      -0.347606        -9.4588
  66   1.0000      -0.344912        -9.3855
  67   1.0000      -0.342590        -9.3224
  68   1.0000      -0.337466        -9.1829
  69   1.0000      -0.336212        -9.1488
  70   1.0000      -0.335473        -9.1287
  71   1.0000      -0.332934        -9.0596
  72   1.0000      -0.329943        -8.9782
  73   1.0000      -0.327206        -8.9037
  74   1.0000      -0.324496        -8.8300
  75   1.0000      -0.322994        -8.7891
  76   1.0000      -0.321563        -8.7502
  77   1.0000      -0.320356        -8.7173
  78   1.0000      -0.315988        -8.5985
  79   1.0000      -0.315327        -8.5805
  80   1.0000      -0.310079        -8.4377
  81   1.0000      -0.307438        -8.3658
  82   1.0000      -0.305720        -8.3191
  83   1.0000      -0.303849        -8.2681
  84   1.0000      -0.299825        -8.1586
  85   1.0000      -0.296696        -8.0735
  86   1.0000      -0.292561        -7.9610
  87   1.0000      -0.291618        -7.9353
  88   1.0000      -0.287986        -7.8365
  89   1.0000      -0.286130        -7.7860
  90   1.0000      -0.284272        -7.7354
  91   1.0000      -0.280549        -7.6341
  92   1.0000      -0.278034        -7.5657
  93   1.0000      -0.277691        -7.5564
  94   1.0000      -0.276780        -7.5316
  95   1.0000      -0.275098        -7.4858
  96   1.0000      -0.273975        -7.4552
  97   1.0000      -0.272601        -7.4178
  98   1.0000      -0.271174        -7.3790
  99   1.0000      -0.269726        -7.3396
 100   1.0000      -0.268581        -7.3085
 101   1.0000      -0.267507        -7.2792
 102   1.0000      -0.265888        -7.2352
 103   1.0000      -0.265177        -7.2158
 104   1.0000      -0.263334        -7.1657
 105   1.0000      -0.262528        -7.1438
 106   1.0000      -0.261586        -7.1181
 107   1.0000      -0.258256        -7.0275
 108   1.0000      -0.255069        -6.9408
 109   1.0000      -0.254559        -6.9269
 110   1.0000      -0.253790        -6.9060
 111   1.0000      -0.251423        -6.8416
 112   1.0000      -0.249330        -6.7846
 113   1.0000      -0.249192        -6.7809
 114   1.0000      -0.247333        -6.7303
 115   1.0000      -0.242462        -6.5977
 116   1.0000      -0.241920        -6.5830
 117   1.0000      -0.240948        -6.5565
 118   1.0000      -0.239580        -6.5193
 119   1.0000      -0.237811        -6.4712
 120   1.0000      -0.234068        -6.3693
 121   1.0000      -0.206785        -5.6269
 122   1.0000      -0.203102        -5.5267
 123   1.0000      -0.199952        -5.4410
 124   0.0000      -0.165893        -4.5142
 125   0.0000      -0.161595        -4.3972
 126   0.0000      -0.139061        -3.7840
 127   0.0000      -0.131038        -3.5657
 128   0.0000      -0.119963        -3.2644

MULLIKEN ATOMIC CHARGES AND SPIN POPULATIONS
--------------------------------------------
   0 Au:    0.474197    0.035465
   1 Au:    0.293483    0.016885
   2 Au:    0.349702    0.052237
   3 Au:    0.450051    0.029858
   4 Au:    0.053706    0.005013
   5 Au:    0.397467    0.043677
   6 Au:    0.330494    0.134201
   7 Au:    0.306894    0.041254
   8 Au:    0.251762    0.026724
   9 Au:    0.498590    0.052181
  10 Au:    0.021188   -0.001199
  11 Au:    0.296214    0.136233
  12 Cr:   -3.723748    3.427472
Sum of atomic charges         :   -0.0000000

LOEWDIN ATOMIC CHARGES AND SPIN POPULATIONS
-------------------------------------------
   0 Au:    0.118129    0.019836
   1 Au:    0.048468    0.021125
   2 Au:    0.102443    0.042803
   3 Au:    0.164023    0.010207
   4 Au:    0.017410    0.052754
   5 Au:    0.160556    0.033214
   6 Au:    0.083988    0.094025
   7 Au:    0.138340    0.038029
   8 Au:    0.072291    0.034720
   9 Au:    0.173955    0.029406
  10 Au:   -0.030230    0.041138
  11 Au:    0.083215    0.095108
  12 Cr:   -1.132590    3.487635

  Mayer bond orders larger than 0.100000
B(  0-Au,  1-Au) :   0.2598 B(  0-Au,  2-Au) :   0.2625 B(  0-Au,  5-Au) :   0.2843
B(  0-Au, 12-Cr) :   0.6045 B(  1-Au,  4-Au) :   0.1836 B(  1-Au,  5-Au) :   0.1916
B(  1-Au, 10-Au) :   0.1175 B(  1-Au, 11-Au) :   0.3585 B(  1-Au, 12-Cr) :   0.6810
B(  2-Au,  3-Au) :   0.1967 B(  2-Au,  7-Au) :   0.2815 B(  2-Au, 12-Cr) :   0.4783
B(  3-Au,  4-Au) :   0.4314 B(  3-Au, 12-Cr) :   0.8833 B(  4-Au,  6-Au) :   0.2682
B(  4-Au,  8-Au) :   0.1746 B(  4-Au, 11-Au) :   0.2214 B(  4-Au, 12-Cr) :   0.4568
B(  5-Au,  9-Au) :   0.2395 B(  5-Au, 10-Au) :   0.2822 B(  5-Au, 12-Cr) :   0.4423
B(  6-Au,  8-Au) :   0.3204 B(  6-Au, 10-Au) :   0.3345 B(  6-Au, 11-Au) :   0.1413
B(  6-Au, 12-Cr) :   0.3190 B(  7-Au,  8-Au) :   0.3326 B(  7-Au,  9-Au) :   0.2636
B(  7-Au, 12-Cr) :   0.6241 B(  8-Au, 12-Cr) :   0.6768 B(  9-Au, 10-Au) :   0.2896
B(  9-Au, 12-Cr) :   0.6652 B( 10-Au, 11-Au) :   0.3729 B( 10-Au, 12-Cr) :   0.5382
B( 11-Au, 12-Cr) :   0.2766

FINAL SINGLE POINT ENERGY     -2674.153048151682

DIPOLE MOMENT
-------------
                                X             Y             Z
Electronic contribution:     -2.83940      25.89741     -14.37227
Nuclear contribution   :      2.58849     -26.07459      14.31090
                        -----------------------------------------
Total Dipole Moment    :     -0.25091      -0.17719      -0.06137
                        -----------------------------------------
Magnitude (a.u.)       :      0.31324
Magnitude (Debye)      :      0.79618

Rotational constants in cm-1:     0.001606     0.001206     0.001074
Rotational constants in MHz :    48.133357    36.141325    32.209966

                             ****ORCA TERMINATED NORMALLY****
TOTAL RUN TIME: 0 days 2 hours 23 minutes 35 seconds 480 msec
