                         Program Version 5.0.3 -  RELEASE  -
|  1> !RI-B2PLYP def2-TZVP def2-TZVP/C
|  2> !RIJCOSX VERYSLOWCONV
|  3>
|  4> %scf
|  5>   AutoTRAHIter 200
|  6>   maxiter 400
|  7> end
|  8>
|  9>
| 10> %pal nprocs 6 end
| 11>
| 12> *xyzfile 0 5 pbe.xyz
| 13>
| 14> $new_job
| 15>
| 16> !RI-B2PLYP def2-TZVP def2-TZVP/C
| 17> !RIJCOSX VERYSLOWCONV
| 18>
| 19> %scf
| 20>   AutoTRAHIter 200
| 21>   maxiter 400
| 22> end
| 23>
| 24>
| 25> %pal nprocs 6 end
| 26>
| 27> *xyzfile 0 3 pbe.xyz
| 28>
| 29>
| 30>
| 31>
| 32>
| 33>                          ****END OF INPUT****
 Total Charge           Charge          ....    0
 Multiplicity           Mult            ....    5
 Number of Electrons    NEL             ....  216
MP2 TOTAL ENERGY:    -2619.308547026 Eh
FINAL SINGLE POINT ENERGY     -2619.308547025963

CARTESIAN COORDINATES (ANGSTROEM)
---------------------------------
  Au     6.044512    8.591653    6.234705
  Au     7.435489   10.671233    7.751588
  Au    10.008416   10.980906    7.116656
  Au     4.919076    9.892000    8.495530
  Au     6.903214    9.934216   10.527115
  Au     6.854553    7.171720   11.012690
  Au     4.563824    7.229714    9.392857
  Au     8.554973    6.179143    8.929457
  Au     6.137604    6.042183    7.396647
  Au     9.423592    8.537374    7.994075
  Fe     6.926397    8.184383    8.627569

 Multiplicity           Mult            ....    3
 Number of Electrons    NEL             ....  216
 Basis Dimension        Dim             ....  445

ORBITAL ENERGIES
----------------
                 SPIN UP ORBITALS
  NO   OCC          E(Eh)            E(eV)
   0   1.0000    -258.323645     -7029.3437
   1   1.0000     -30.887471      -840.4908
   2   1.0000     -26.597412      -723.7524
   3   1.0000     -26.592661      -723.6231
   4   1.0000     -26.566517      -722.9117
   5   1.0000      -4.402352      -119.7941
   6   1.0000      -4.397715      -119.6679
   7   1.0000      -4.397713      -119.6679
   8   1.0000      -4.391367      -119.4952
   9   1.0000      -4.387685      -119.3950
  10   1.0000      -4.386735      -119.3691
  11   1.0000      -4.383990      -119.2944
  12   1.0000      -4.383596      -119.2837
  13   1.0000      -4.380885      -119.2099
  14   1.0000      -4.376161      -119.0814
  15   1.0000      -3.897605      -106.0592
  16   1.0000      -2.630592       -71.5821
  17   1.0000      -2.619929       -71.2919
  18   1.0000      -2.567234       -69.8580
  19   1.0000      -2.524355       -68.6912
  20   1.0000      -2.521399       -68.6108
  21   1.0000      -2.521041       -68.6010
  22   1.0000      -2.518619       -68.5351
  23   1.0000      -2.516216       -68.4697
  24   1.0000      -2.516142       -68.4677
  25   1.0000      -2.513866       -68.4058
  26   1.0000      -2.513256       -68.3892
  27   1.0000      -2.512478       -68.3680
  28   1.0000      -2.510057       -68.3021
  29   1.0000      -2.509080       -68.2755
  30   1.0000      -2.509026       -68.2741
  31   1.0000      -2.507290       -68.2268
  32   1.0000      -2.506416       -68.2030
  33   1.0000      -2.505988       -68.1914
  34   1.0000      -2.504946       -68.1630
  35   1.0000      -2.503904       -68.1347
  36   1.0000      -2.503126       -68.1135
  37   1.0000      -2.502121       -68.0862
  38   1.0000      -2.501849       -68.0788
  39   1.0000      -2.500911       -68.0533
  40   1.0000      -2.499462       -68.0138
  41   1.0000      -2.499099       -68.0039
  42   1.0000      -2.498762       -67.9948
  43   1.0000      -2.498506       -67.9878
  44   1.0000      -2.496462       -67.9322
  45   1.0000      -2.495683       -67.9110
  46   1.0000      -2.494550       -67.8802
  47   1.0000      -2.492882       -67.8348
  48   1.0000      -2.487683       -67.6933
  49   1.0000      -0.548550       -14.9268
  50   1.0000      -0.546404       -14.8684
  51   1.0000      -0.536393       -14.5960
  52   1.0000      -0.528223       -14.3737
  53   1.0000      -0.504789       -13.7360
  54   1.0000      -0.493283       -13.4229
  55   1.0000      -0.464040       -12.6272
  56   1.0000      -0.456202       -12.4139
  57   1.0000      -0.445610       -12.1257
  58   1.0000      -0.444767       -12.1027
  59   1.0000      -0.435848       -11.8600
  60   1.0000      -0.434715       -11.8292
  61   1.0000      -0.431920       -11.7531
  62   1.0000      -0.424691       -11.5564
  63   1.0000      -0.421383       -11.4664
  64   1.0000      -0.421113       -11.4591
  65   1.0000      -0.418335       -11.3835
  66   1.0000      -0.416538       -11.3346
  67   1.0000      -0.413252       -11.2451
  68   1.0000      -0.409255       -11.1364
  69   1.0000      -0.408115       -11.1054
  70   1.0000      -0.405839       -11.0434
  71   1.0000      -0.404575       -11.0090
  72   1.0000      -0.403055       -10.9677
  73   1.0000      -0.401584       -10.9276
  74   1.0000      -0.396859       -10.7991
  75   1.0000      -0.394169       -10.7259
  76   1.0000      -0.388841       -10.5809
  77   1.0000      -0.385027       -10.4771
  78   1.0000      -0.381504       -10.3812
  79   1.0000      -0.379031       -10.3140
  80   1.0000      -0.376137       -10.2352
  81   1.0000      -0.374572       -10.1926
  82   1.0000      -0.372487       -10.1359
  83   1.0000      -0.372289       -10.1305
  84   1.0000      -0.370279       -10.0758
  85   1.0000      -0.369190       -10.0462
  86   1.0000      -0.367878       -10.0105
  87   1.0000      -0.366865        -9.9829
  88   1.0000      -0.361997        -9.8504
  89   1.0000      -0.361587        -9.8393
  90   1.0000      -0.358943        -9.7673
  91   1.0000      -0.356145        -9.6912
  92   1.0000      -0.355996        -9.6871
  93   1.0000      -0.352722        -9.5981
  94   1.0000      -0.350644        -9.5415
  95   1.0000      -0.344926        -9.3859
  96   1.0000      -0.344254        -9.3676
  97   1.0000      -0.344225        -9.3668
  98   1.0000      -0.342736        -9.3263
  99   1.0000      -0.341002        -9.2791
 100   1.0000      -0.335704        -9.1350
 101   1.0000      -0.334029        -9.0894
 102   1.0000      -0.327148        -8.9022
 103   1.0000      -0.323710        -8.8086
 104   1.0000      -0.318538        -8.6679
 105   1.0000      -0.302954        -8.2438
 106   1.0000      -0.279605        -7.6084
 107   1.0000      -0.256387        -6.9767
 108   1.0000      -0.220624        -6.0035
 109   0.0000      -0.099233        -2.7003
 110   0.0000      -0.091747        -2.4966
 111   0.0000      -0.090452        -2.4613
 112   0.0000      -0.069094        -1.8801
 113   0.0000      -0.039763        -1.0820

                 SPIN DOWN ORBITALS
  NO   OCC          E(Eh)            E(eV)
   0   1.0000    -258.321549     -7029.2867
   1   1.0000     -30.795607      -837.9911
   2   1.0000     -26.504749      -721.2309
   3   1.0000     -26.503878      -721.2072
   4   1.0000     -26.496227      -720.9990
   5   1.0000      -4.402431      -119.7962
   6   1.0000      -4.398636      -119.6930
   7   1.0000      -4.396329      -119.6302
   8   1.0000      -4.391986      -119.5120
   9   1.0000      -4.388225      -119.4097
  10   1.0000      -4.387412      -119.3875
  11   1.0000      -4.385250      -119.3287
  12   1.0000      -4.384909      -119.3194
  13   1.0000      -4.382138      -119.2440
  14   1.0000      -4.376104      -119.0798
  15   1.0000      -3.656425       -99.4964
  16   1.0000      -2.524413       -68.6928
  17   1.0000      -2.520484       -68.5858
  18   1.0000      -2.518952       -68.5442
  19   1.0000      -2.517922       -68.5162
  20   1.0000      -2.517020       -68.4916
  21   1.0000      -2.514795       -68.4311
  22   1.0000      -2.514032       -68.4103
  23   1.0000      -2.513757       -68.4028
  24   1.0000      -2.511467       -68.3405
  25   1.0000      -2.508686       -68.2648
  26   1.0000      -2.508122       -68.2495
  27   1.0000      -2.507935       -68.2444
  28   1.0000      -2.507853       -68.2421
  29   1.0000      -2.506263       -68.1989
  30   1.0000      -2.506004       -68.1918
  31   1.0000      -2.505401       -68.1754
  32   1.0000      -2.504003       -68.1374
  33   1.0000      -2.503371       -68.1202
  34   1.0000      -2.501887       -68.0798
  35   1.0000      -2.501445       -68.0678
  36   1.0000      -2.501053       -68.0571
  37   1.0000      -2.500315       -68.0370
  38   1.0000      -2.500234       -68.0348
  39   1.0000      -2.499814       -68.0234
  40   1.0000      -2.499524       -68.0155
  41   1.0000      -2.497529       -67.9612
  42   1.0000      -2.496455       -67.9320
  43   1.0000      -2.496399       -67.9305
  44   1.0000      -2.493182       -67.8429
  45   1.0000      -2.487729       -67.6945
  46   1.0000      -2.338672       -63.6385
  47   1.0000      -2.327754       -63.3414
  48   1.0000      -2.325105       -63.2693
  49   1.0000      -0.497225       -13.5302
  50   1.0000      -0.471394       -12.8273
  51   1.0000      -0.463843       -12.6218
  52   1.0000      -0.455695       -12.4001
  53   1.0000      -0.450836       -12.2679
  54   1.0000      -0.449546       -12.2328
  55   1.0000      -0.441730       -12.0201
  56   1.0000      -0.436689       -11.8829
  57   1.0000      -0.434228       -11.8159
  58   1.0000      -0.430830       -11.7235
  59   1.0000      -0.428965       -11.6727
  60   1.0000      -0.424981       -11.5643
  61   1.0000      -0.423908       -11.5351
  62   1.0000      -0.423219       -11.5164
  63   1.0000      -0.422386       -11.4937
  64   1.0000      -0.418307       -11.3827
  65   1.0000      -0.415421       -11.3042
  66   1.0000      -0.414064       -11.2672
  67   1.0000      -0.410761       -11.1774
  68   1.0000      -0.406796       -11.0695
  69   1.0000      -0.402060       -10.9406
  70   1.0000      -0.398693       -10.8490
  71   1.0000      -0.396886       -10.7998
  72   1.0000      -0.390587       -10.6284
  73   1.0000      -0.386927       -10.5288
  74   1.0000      -0.386261       -10.5107
  75   1.0000      -0.384864       -10.4727
  76   1.0000      -0.382857       -10.4181
  77   1.0000      -0.380938       -10.3659
  78   1.0000      -0.380391       -10.3510
  79   1.0000      -0.376666       -10.2496
  80   1.0000      -0.374171       -10.1817
  81   1.0000      -0.370755       -10.0888
  82   1.0000      -0.370299       -10.0763
  83   1.0000      -0.368048       -10.0151
  84   1.0000      -0.367365        -9.9965
  85   1.0000      -0.366084        -9.9617
  86   1.0000      -0.361185        -9.8283
  87   1.0000      -0.357083        -9.7167
  88   1.0000      -0.356602        -9.7036
  89   1.0000      -0.351600        -9.5675
  90   1.0000      -0.348925        -9.4947
  91   1.0000      -0.348529        -9.4839
  92   1.0000      -0.345685        -9.4066
  93   1.0000      -0.344725        -9.3804
  94   1.0000      -0.344307        -9.3691
  95   1.0000      -0.339701        -9.2437
  96   1.0000      -0.338862        -9.2209
  97   1.0000      -0.330699        -8.9988
  98   1.0000      -0.329519        -8.9667
  99   1.0000      -0.321769        -8.7558
 100   1.0000      -0.313090        -8.5196
 101   1.0000      -0.304693        -8.2911
 102   1.0000      -0.294847        -8.0232
 103   1.0000      -0.281412        -7.6576
 104   1.0000      -0.232119        -6.3163
 105   1.0000      -0.209833        -5.7098
 106   1.0000      -0.197537        -5.3753
 107   0.0000      -0.095721        -2.6047
 108   0.0000      -0.074972        -2.0401
 109   0.0000      -0.045989        -1.2514
 110   0.0000      -0.043570        -1.1856
 111   0.0000      -0.032146        -0.8747

MULLIKEN ATOMIC CHARGES AND SPIN POPULATIONS
--------------------------------------------
   0 Au:    0.171311   -0.266562
   1 Au:   -0.120793   -0.020690
   2 Au:    0.322611    0.083637
   3 Au:    0.331400   -0.220796
   4 Au:    0.181978   -0.246943
   5 Au:    0.167709   -0.308973
   6 Au:    0.151749   -0.109554
   7 Au:    0.306501   -0.045930
   8 Au:    0.168283   -0.320661
   9 Au:   -0.142610   -0.066190
  10 Fe:   -1.538141    3.522662
Sum of atomic charges         :    0.0000000

LOEWDIN ATOMIC CHARGES AND SPIN POPULATIONS
-------------------------------------------
   0 Au:    0.083682   -0.213561
   1 Au:   -0.094768   -0.072569
   2 Au:    0.105538    0.037562
   3 Au:    0.044951   -0.186641
   4 Au:    0.086416   -0.204845
   5 Au:    0.035374   -0.215439
   6 Au:    0.019739   -0.153221
   7 Au:    0.084015   -0.126700
   8 Au:    0.032758   -0.224925
   9 Au:   -0.031207   -0.028852
  10 Fe:   -0.366499    3.389191

  Mayer bond orders larger than 0.100000
B(  0-Au,  1-Au) :   0.1840 B(  0-Au,  3-Au) :   0.1244 B(  0-Au,  8-Au) :   0.1604
B(  0-Au, 10-Fe) :   0.5788 B(  1-Au,  2-Au) :   0.5152 B(  1-Au,  3-Au) :   0.2741
B(  1-Au,  4-Au) :   0.2007 B(  1-Au,  9-Au) :   0.3349 B(  1-Au, 10-Fe) :   0.4156
B(  2-Au,  9-Au) :   0.5148 B(  3-Au,  4-Au) :   0.1238 B(  3-Au,  6-Au) :   0.2023
B(  3-Au, 10-Fe) :   0.4705 B(  4-Au,  5-Au) :   0.1676 B(  4-Au, 10-Fe) :   0.5729
B(  5-Au,  6-Au) :   0.2015 B(  5-Au, 10-Fe) :   0.5343 B(  6-Au,  8-Au) :   0.2003
B(  6-Au, 10-Fe) :   0.5011 B(  7-Au,  9-Au) :   0.4735 B(  7-Au, 10-Fe) :   0.5164
B(  8-Au, 10-Fe) :   0.5329 B(  9-Au, 10-Fe) :   0.5326

MP2 TOTAL ENERGY:    -2619.321906239 Eh
FINAL SINGLE POINT ENERGY     -2619.321906239379

DIPOLE MOMENT
-------------
                                X             Y             Z
Electronic contribution:      5.99806      12.85483      -5.38928
Nuclear contribution   :     -5.98958     -12.82669       5.39523
                        -----------------------------------------
Total Dipole Moment    :      0.00847       0.02814       0.00595
                        -----------------------------------------
Magnitude (a.u.)       :      0.02999
Magnitude (Debye)      :      0.07622

Rotational constants in cm-1:     0.002123     0.001496     0.001387
Rotational constants in MHz :    63.635694    44.852367    41.587551

                             ****ORCA TERMINATED NORMALLY****
TOTAL RUN TIME: 0 days 0 hours 20 minutes 20 seconds 812 msec
