                         Program Version 5.0.3 -  RELEASE  -
|  1> !PBE def2-TZVP VERYSLOWCONV
|  2>
|  3> %scf
|  4>   AutoTRAHIter 200
|  5>   maxiter 400
|  6> end
|  7>
|  8>
|  9> %pal nprocs 6 end
| 10>
| 11> *xyzfile 0 5 pbe.xyz
| 12>
| 13> $new_job
| 14>
| 15> !PBE def2-TZVP VERYSLOWCONV
| 16>
| 17> %scf
| 18>   AutoTRAHIter 200
| 19>   maxiter 400
| 20> end
| 21>
| 22>
| 23> %pal nprocs 6 end
| 24>
| 25> *xyzfile 0 3 pbe.xyz
| 26>
| 27>
| 28>
| 29>
| 30>
| 31>                          ****END OF INPUT****
 Total Charge           Charge          ....    0
 Multiplicity           Mult            ....    5
 Number of Electrons    NEL             ....  216
FINAL SINGLE POINT ENERGY     -2621.708494809546

CARTESIAN COORDINATES (ANGSTROEM)
---------------------------------
  Au     6.044512    8.591653    6.234705
  Au     7.435489   10.671233    7.751588
  Au    10.008416   10.980906    7.116656
  Au     4.919076    9.892000    8.495530
  Au     6.903214    9.934216   10.527115
  Au     6.854553    7.171720   11.012690
  Au     4.563824    7.229714    9.392857
  Au     8.554973    6.179143    8.929457
  Au     6.137604    6.042183    7.396647
  Au     9.423592    8.537374    7.994075
  Fe     6.926397    8.184383    8.627569

 Multiplicity           Mult            ....    3
 Number of Electrons    NEL             ....  216
 Basis Dimension        Dim             ....  445

ORBITAL ENERGIES
----------------
                 SPIN UP ORBITALS
  NO   OCC          E(Eh)            E(eV)
   0   1.0000    -254.750016     -6932.1004
   1   1.0000     -29.591165      -805.2165
   2   1.0000     -25.532183      -694.7660
   3   1.0000     -25.527854      -694.6482
   4   1.0000     -25.520116      -694.4377
   5   1.0000      -4.026550      -109.5680
   6   1.0000      -4.023373      -109.4816
   7   1.0000      -4.020322      -109.3985
   8   1.0000      -4.016626      -109.2980
   9   1.0000      -4.011998      -109.1720
  10   1.0000      -4.011986      -109.1717
  11   1.0000      -4.011824      -109.1673
  12   1.0000      -4.011803      -109.1667
  13   1.0000      -4.010678      -109.1361
  14   1.0000      -4.004049      -108.9557
  15   1.0000      -3.365160       -91.5707
  16   1.0000      -2.244982       -61.0891
  17   1.0000      -2.240689       -60.9722
  18   1.0000      -2.240082       -60.9557
  19   1.0000      -2.239625       -60.9433
  20   1.0000      -2.235900       -60.8419
  21   1.0000      -2.234708       -60.8095
  22   1.0000      -2.234522       -60.8044
  23   1.0000      -2.233729       -60.7829
  24   1.0000      -2.233464       -60.7756
  25   1.0000      -2.230518       -60.6955
  26   1.0000      -2.230438       -60.6933
  27   1.0000      -2.229560       -60.6694
  28   1.0000      -2.229126       -60.6576
  29   1.0000      -2.228490       -60.6403
  30   1.0000      -2.227004       -60.5999
  31   1.0000      -2.226213       -60.5783
  32   1.0000      -2.225329       -60.5543
  33   1.0000      -2.224562       -60.5334
  34   1.0000      -2.224440       -60.5301
  35   1.0000      -2.223283       -60.4986
  36   1.0000      -2.223247       -60.4976
  37   1.0000      -2.222729       -60.4835
  38   1.0000      -2.222583       -60.4796
  39   1.0000      -2.222151       -60.4678
  40   1.0000      -2.221502       -60.4501
  41   1.0000      -2.221324       -60.4453
  42   1.0000      -2.221283       -60.4442
  43   1.0000      -2.220249       -60.4160
  44   1.0000      -2.218033       -60.3557
  45   1.0000      -2.209329       -60.1189
  46   1.0000      -2.189721       -59.5853
  47   1.0000      -2.180198       -59.3262
  48   1.0000      -2.165868       -58.9363
  49   1.0000      -0.413076       -11.2404
  50   1.0000      -0.373316       -10.1584
  51   1.0000      -0.368240       -10.0203
  52   1.0000      -0.359816        -9.7911
  53   1.0000      -0.355986        -9.6869
  54   1.0000      -0.350119        -9.5272
  55   1.0000      -0.349730        -9.5166
  56   1.0000      -0.344253        -9.3676
  57   1.0000      -0.340884        -9.2759
  58   1.0000      -0.334457        -9.1010
  59   1.0000      -0.328211        -8.9311
  60   1.0000      -0.326152        -8.8750
  61   1.0000      -0.323124        -8.7926
  62   1.0000      -0.320100        -8.7104
  63   1.0000      -0.316398        -8.6096
  64   1.0000      -0.313999        -8.5443
  65   1.0000      -0.313945        -8.5429
  66   1.0000      -0.311408        -8.4738
  67   1.0000      -0.307370        -8.3640
  68   1.0000      -0.306236        -8.3331
  69   1.0000      -0.300449        -8.1756
  70   1.0000      -0.299668        -8.1544
  71   1.0000      -0.297891        -8.1060
  72   1.0000      -0.297687        -8.1005
  73   1.0000      -0.293877        -7.9968
  74   1.0000      -0.289932        -7.8894
  75   1.0000      -0.287067        -7.8115
  76   1.0000      -0.282541        -7.6883
  77   1.0000      -0.280310        -7.6276
  78   1.0000      -0.278652        -7.5825
  79   1.0000      -0.277635        -7.5548
  80   1.0000      -0.273171        -7.4334
  81   1.0000      -0.271137        -7.3780
  82   1.0000      -0.268872        -7.3164
  83   1.0000      -0.268599        -7.3090
  84   1.0000      -0.266765        -7.2590
  85   1.0000      -0.266689        -7.2570
  86   1.0000      -0.261137        -7.1059
  87   1.0000      -0.260981        -7.1017
  88   1.0000      -0.259657        -7.0656
  89   1.0000      -0.257536        -7.0079
  90   1.0000      -0.257185        -6.9984
  91   1.0000      -0.255695        -6.9578
  92   1.0000      -0.249313        -6.7841
  93   1.0000      -0.248581        -6.7642
  94   1.0000      -0.247265        -6.7284
  95   1.0000      -0.245799        -6.6885
  96   1.0000      -0.245258        -6.6738
  97   1.0000      -0.244107        -6.6425
  98   1.0000      -0.241203        -6.5635
  99   1.0000      -0.239008        -6.5037
 100   1.0000      -0.236764        -6.4427
 101   1.0000      -0.235575        -6.4103
 102   1.0000      -0.234068        -6.3693
 103   1.0000      -0.231766        -6.3067
 104   1.0000      -0.229335        -6.2405
 105   1.0000      -0.227623        -6.1939
 106   1.0000      -0.227475        -6.1899
 107   1.0000      -0.222770        -6.0619
 108   1.0000      -0.198358        -5.3976
 109   0.0000      -0.165648        -4.5075
 110   0.0000      -0.158635        -4.3167
 111   0.0000      -0.153327        -4.1722
 112   0.0000      -0.133847        -3.6422
 113   0.0000      -0.104237        -2.8364

                 SPIN DOWN ORBITALS
  NO   OCC          E(Eh)            E(eV)
   0   1.0000    -254.749332     -6932.0818
   1   1.0000     -29.536031      -803.7163
   2   1.0000     -25.487747      -693.5569
   3   1.0000     -25.486238      -693.5158
   4   1.0000     -25.481213      -693.3791
   5   1.0000      -4.026312      -109.5615
   6   1.0000      -4.023619      -109.4882
   7   1.0000      -4.019169      -109.3671
   8   1.0000      -4.017098      -109.3108
   9   1.0000      -4.012142      -109.1759
  10   1.0000      -4.012108      -109.1750
  11   1.0000      -4.011914      -109.1697
  12   1.0000      -4.011905      -109.1695
  13   1.0000      -4.011015      -109.1453
  14   1.0000      -4.004386      -108.9649
  15   1.0000      -3.241101       -88.1948
  16   1.0000      -2.244697       -61.0813
  17   1.0000      -2.239535       -60.9409
  18   1.0000      -2.239405       -60.9373
  19   1.0000      -2.238967       -60.9254
  20   1.0000      -2.236072       -60.8466
  21   1.0000      -2.234931       -60.8156
  22   1.0000      -2.234291       -60.7982
  23   1.0000      -2.233519       -60.7771
  24   1.0000      -2.232826       -60.7583
  25   1.0000      -2.229983       -60.6809
  26   1.0000      -2.229846       -60.6772
  27   1.0000      -2.229381       -60.6645
  28   1.0000      -2.228664       -60.6450
  29   1.0000      -2.228625       -60.6440
  30   1.0000      -2.226956       -60.5986
  31   1.0000      -2.226431       -60.5843
  32   1.0000      -2.225055       -60.5468
  33   1.0000      -2.224992       -60.5451
  34   1.0000      -2.224505       -60.5318
  35   1.0000      -2.223863       -60.5144
  36   1.0000      -2.223728       -60.5107
  37   1.0000      -2.223288       -60.4987
  38   1.0000      -2.223157       -60.4952
  39   1.0000      -2.222901       -60.4882
  40   1.0000      -2.222086       -60.4660
  41   1.0000      -2.221249       -60.4433
  42   1.0000      -2.221198       -60.4419
  43   1.0000      -2.220964       -60.4355
  44   1.0000      -2.218609       -60.3714
  45   1.0000      -2.209398       -60.1208
  46   1.0000      -2.059832       -56.0509
  47   1.0000      -2.058844       -56.0240
  48   1.0000      -2.053313       -55.8735
  49   1.0000      -0.408747       -11.1226
  50   1.0000      -0.371233       -10.1018
  51   1.0000      -0.367765       -10.0074
  52   1.0000      -0.353122        -9.6089
  53   1.0000      -0.347130        -9.4459
  54   1.0000      -0.343571        -9.3491
  55   1.0000      -0.339837        -9.2474
  56   1.0000      -0.337856        -9.1935
  57   1.0000      -0.330673        -8.9981
  58   1.0000      -0.328563        -8.9406
  59   1.0000      -0.325389        -8.8543
  60   1.0000      -0.322278        -8.7696
  61   1.0000      -0.320121        -8.7109
  62   1.0000      -0.319137        -8.6842
  63   1.0000      -0.317775        -8.6471
  64   1.0000      -0.315676        -8.5900
  65   1.0000      -0.314930        -8.5697
  66   1.0000      -0.312742        -8.5101
  67   1.0000      -0.308678        -8.3996
  68   1.0000      -0.304912        -8.2971
  69   1.0000      -0.300548        -8.1783
  70   1.0000      -0.300112        -8.1665
  71   1.0000      -0.295545        -8.0422
  72   1.0000      -0.292908        -7.9704
  73   1.0000      -0.290553        -7.9064
  74   1.0000      -0.288830        -7.8595
  75   1.0000      -0.285268        -7.7625
  76   1.0000      -0.280881        -7.6432
  77   1.0000      -0.280051        -7.6206
  78   1.0000      -0.276810        -7.5324
  79   1.0000      -0.276016        -7.5108
  80   1.0000      -0.274557        -7.4711
  81   1.0000      -0.272059        -7.4031
  82   1.0000      -0.269182        -7.3248
  83   1.0000      -0.267730        -7.2853
  84   1.0000      -0.267344        -7.2748
  85   1.0000      -0.266720        -7.2578
  86   1.0000      -0.261269        -7.1095
  87   1.0000      -0.260657        -7.0928
  88   1.0000      -0.256929        -6.9914
  89   1.0000      -0.256903        -6.9907
  90   1.0000      -0.253567        -6.8999
  91   1.0000      -0.250546        -6.8177
  92   1.0000      -0.248415        -6.7597
  93   1.0000      -0.247219        -6.7272
  94   1.0000      -0.246578        -6.7097
  95   1.0000      -0.246031        -6.6949
  96   1.0000      -0.244155        -6.6438
  97   1.0000      -0.243568        -6.6278
  98   1.0000      -0.237754        -6.4696
  99   1.0000      -0.236184        -6.4269
 100   1.0000      -0.235823        -6.4171
 101   1.0000      -0.231787        -6.3073
 102   1.0000      -0.226624        -6.1668
 103   1.0000      -0.206583        -5.6214
 104   1.0000      -0.193439        -5.2638
 105   1.0000      -0.184064        -5.0086
 106   1.0000      -0.178812        -4.8657
 107   0.0000      -0.158754        -4.3199
 108   0.0000      -0.156532        -4.2594
 109   0.0000      -0.148132        -4.0309
 110   0.0000      -0.140054        -3.8111
 111   0.0000      -0.138335        -3.7643

MULLIKEN ATOMIC CHARGES AND SPIN POPULATIONS
--------------------------------------------
   0 Au:    0.216153   -0.140666
   1 Au:   -0.067118   -0.065304
   2 Au:    0.296821    0.052252
   3 Au:    0.348850   -0.093720
   4 Au:    0.216150   -0.140540
   5 Au:    0.264796   -0.157007
   6 Au:    0.191413   -0.030926
   7 Au:    0.330346   -0.068718
   8 Au:    0.264743   -0.158278
   9 Au:   -0.111520   -0.013356
  10 Fe:   -1.950634    2.816264
Sum of atomic charges         :   -0.0000000

LOEWDIN ATOMIC CHARGES AND SPIN POPULATIONS
-------------------------------------------
   0 Au:    0.119093   -0.121291
   1 Au:   -0.074524   -0.058618
   2 Au:    0.089504    0.024400
   3 Au:    0.072840   -0.100220
   4 Au:    0.119488   -0.121163
   5 Au:    0.071899   -0.140619
   6 Au:    0.057894   -0.070848
   7 Au:    0.100755   -0.115830
   8 Au:    0.072076   -0.141200
   9 Au:    0.015400    0.015634
  10 Fe:   -0.644425    2.829753

  Mayer bond orders larger than 0.100000
B(  0-Au,  1-Au) :   0.1505 B(  0-Au,  3-Au) :   0.1737 B(  0-Au,  8-Au) :   0.2187
B(  0-Au, 10-Fe) :   0.7110 B(  1-Au,  2-Au) :   0.5450 B(  1-Au,  3-Au) :   0.3268
B(  1-Au,  4-Au) :   0.1543 B(  1-Au,  9-Au) :   0.2505 B(  1-Au, 10-Fe) :   0.5341
B(  2-Au,  9-Au) :   0.5275 B(  2-Au, 10-Fe) :   0.1105 B(  3-Au,  4-Au) :   0.1717
B(  3-Au,  6-Au) :   0.1987 B(  3-Au, 10-Fe) :   0.5379 B(  4-Au,  5-Au) :   0.2167
B(  4-Au, 10-Fe) :   0.7110 B(  5-Au,  6-Au) :   0.2524 B(  5-Au,  7-Au) :   0.1439
B(  5-Au, 10-Fe) :   0.6345 B(  6-Au,  8-Au) :   0.2519 B(  6-Au, 10-Fe) :   0.5816
B(  7-Au,  8-Au) :   0.1435 B(  7-Au,  9-Au) :   0.3913 B(  7-Au, 10-Fe) :   0.5980
B(  8-Au, 10-Fe) :   0.6336 B(  9-Au, 10-Fe) :   0.6961

FINAL SINGLE POINT ENERGY     -2621.719800297710

DIPOLE MOMENT
-------------
                                X             Y             Z
Electronic contribution:      5.90005      12.83285      -5.38128
Nuclear contribution   :     -5.98958     -12.82669       5.39523
                        -----------------------------------------
Total Dipole Moment    :     -0.08953       0.00616       0.01395
                        -----------------------------------------
Magnitude (a.u.)       :      0.09082
Magnitude (Debye)      :      0.23084

Rotational constants in cm-1:     0.002123     0.001496     0.001387
Rotational constants in MHz :    63.635694    44.852367    41.587551

                             ****ORCA TERMINATED NORMALLY****
TOTAL RUN TIME: 0 days 0 hours 6 minutes 40 seconds 932 msec
