                         Program Version 5.0.3 -  RELEASE  -
|  1> !R2SCAN def2-TZVP VERYSLOWCONV
|  2> !KDIIS
|  3> %scf
|  4>   AutoTRAHIter 200
|  5>   maxiter 400
|  6> end
|  7>
|  8> %pal nprocs 6 end
|  9>
| 10> *xyzfile 0 5 pbe.xyz
| 11>
| 12> $new_job
| 13>
| 14> !R2SCAN def2-TZVP VERYSLOWCONV
| 15> !KDIIS
| 16> %scf
| 17>   AutoTRAHIter 200
| 18>   maxiter 400
| 19> end
| 20>
| 21>
| 22> %pal nprocs 6 end
| 23>
| 24> *xyzfile 0 3 pbe.xyz
| 25>
| 26>
| 27>
| 28>
| 29>
| 30>                          ****END OF INPUT****
 Total Charge           Charge          ....    0
 Multiplicity           Mult            ....    5
 Number of Electrons    NEL             ....  216
FINAL SINGLE POINT ENERGY     -2622.092966155066

CARTESIAN COORDINATES (ANGSTROEM)
---------------------------------
  Au     6.044512    8.591653    6.234705
  Au     7.435489   10.671233    7.751588
  Au    10.008416   10.980906    7.116656
  Au     4.919076    9.892000    8.495530
  Au     6.903214    9.934216   10.527115
  Au     6.854553    7.171720   11.012690
  Au     4.563824    7.229714    9.392857
  Au     8.554973    6.179143    8.929457
  Au     6.137604    6.042183    7.396647
  Au     9.423592    8.537374    7.994075
  Fe     6.926397    8.184383    8.627569

 Multiplicity           Mult            ....    3
 Number of Electrons    NEL             ....  216
 Basis Dimension        Dim             ....  445

ORBITAL ENERGIES
----------------
                 SPIN UP ORBITALS
  NO   OCC          E(Eh)            E(eV)
   0   1.0000    -255.635920     -6956.2070
   1   1.0000     -29.939535      -814.6962
   2   1.0000     -25.774130      -701.3497
   3   1.0000     -25.771812      -701.2867
   4   1.0000     -25.763498      -701.0604
   5   1.0000      -4.117955      -112.0553
   6   1.0000      -4.114921      -111.9727
   7   1.0000      -4.111381      -111.8764
   8   1.0000      -4.107325      -111.7660
   9   1.0000      -4.103357      -111.6580
  10   1.0000      -4.103353      -111.6579
  11   1.0000      -4.102877      -111.6450
  12   1.0000      -4.102829      -111.6437
  13   1.0000      -4.101418      -111.6052
  14   1.0000      -4.094993      -111.4304
  15   1.0000      -3.515838       -95.6708
  16   1.0000      -2.309264       -62.8383
  17   1.0000      -2.304722       -62.7147
  18   1.0000      -2.304539       -62.7097
  19   1.0000      -2.304040       -62.6961
  20   1.0000      -2.300212       -62.5919
  21   1.0000      -2.298939       -62.5573
  22   1.0000      -2.298600       -62.5481
  23   1.0000      -2.298112       -62.5348
  24   1.0000      -2.297190       -62.5097
  25   1.0000      -2.295878       -62.4740
  26   1.0000      -2.295004       -62.4502
  27   1.0000      -2.294041       -62.4240
  28   1.0000      -2.293408       -62.4068
  29   1.0000      -2.291951       -62.3672
  30   1.0000      -2.291124       -62.3447
  31   1.0000      -2.289917       -62.3118
  32   1.0000      -2.289471       -62.2997
  33   1.0000      -2.288595       -62.2758
  34   1.0000      -2.288457       -62.2721
  35   1.0000      -2.288148       -62.2637
  36   1.0000      -2.286952       -62.2311
  37   1.0000      -2.286859       -62.2286
  38   1.0000      -2.286242       -62.2118
  39   1.0000      -2.285971       -62.2044
  40   1.0000      -2.285912       -62.2028
  41   1.0000      -2.285492       -62.1914
  42   1.0000      -2.285430       -62.1897
  43   1.0000      -2.285055       -62.1795
  44   1.0000      -2.283668       -62.1418
  45   1.0000      -2.282727       -62.1162
  46   1.0000      -2.281323       -62.0780
  47   1.0000      -2.273295       -61.8595
  48   1.0000      -2.267648       -61.7058
  49   1.0000      -0.420586       -11.4447
  50   1.0000      -0.383162       -10.4264
  51   1.0000      -0.377103       -10.2615
  52   1.0000      -0.374302       -10.1853
  53   1.0000      -0.370882       -10.0922
  54   1.0000      -0.366227        -9.9656
  55   1.0000      -0.363645        -9.8953
  56   1.0000      -0.358769        -9.7626
  57   1.0000      -0.349880        -9.5207
  58   1.0000      -0.345103        -9.3907
  59   1.0000      -0.338135        -9.2011
  60   1.0000      -0.337409        -9.1814
  61   1.0000      -0.334190        -9.0938
  62   1.0000      -0.327565        -8.9135
  63   1.0000      -0.325779        -8.8649
  64   1.0000      -0.323265        -8.7965
  65   1.0000      -0.323216        -8.7951
  66   1.0000      -0.320424        -8.7192
  67   1.0000      -0.316724        -8.6185
  68   1.0000      -0.314285        -8.5521
  69   1.0000      -0.309806        -8.4303
  70   1.0000      -0.309351        -8.4179
  71   1.0000      -0.307707        -8.3731
  72   1.0000      -0.307541        -8.3686
  73   1.0000      -0.305029        -8.3003
  74   1.0000      -0.298790        -8.1305
  75   1.0000      -0.296810        -8.0766
  76   1.0000      -0.292805        -7.9676
  77   1.0000      -0.291972        -7.9450
  78   1.0000      -0.287297        -7.8178
  79   1.0000      -0.286146        -7.7864
  80   1.0000      -0.282484        -7.6868
  81   1.0000      -0.279777        -7.6131
  82   1.0000      -0.278769        -7.5857
  83   1.0000      -0.277484        -7.5507
  84   1.0000      -0.276699        -7.5294
  85   1.0000      -0.275310        -7.4916
  86   1.0000      -0.275119        -7.4864
  87   1.0000      -0.270247        -7.3538
  88   1.0000      -0.268925        -7.3178
  89   1.0000      -0.267600        -7.2818
  90   1.0000      -0.265821        -7.2334
  91   1.0000      -0.264510        -7.1977
  92   1.0000      -0.258163        -7.0250
  93   1.0000      -0.257666        -7.0115
  94   1.0000      -0.256392        -6.9768
  95   1.0000      -0.253837        -6.9072
  96   1.0000      -0.253576        -6.9002
  97   1.0000      -0.253236        -6.8909
  98   1.0000      -0.252189        -6.8624
  99   1.0000      -0.248681        -6.7670
 100   1.0000      -0.248381        -6.7588
 101   1.0000      -0.244002        -6.6396
 102   1.0000      -0.243959        -6.6385
 103   1.0000      -0.242651        -6.6029
 104   1.0000      -0.240653        -6.5485
 105   1.0000      -0.236918        -6.4469
 106   1.0000      -0.234552        -6.3825
 107   1.0000      -0.225344        -6.1319
 108   1.0000      -0.200437        -5.4542
 109   0.0000      -0.163674        -4.4538
 110   0.0000      -0.155431        -4.2295
 111   0.0000      -0.149506        -4.0683
 112   0.0000      -0.129137        -3.5140
 113   0.0000      -0.097166        -2.6440

                 SPIN DOWN ORBITALS
  NO   OCC          E(Eh)            E(eV)
   0   1.0000    -255.634889     -6956.1790
   1   1.0000     -29.861733      -812.5791
   2   1.0000     -25.712245      -699.6658
   3   1.0000     -25.711795      -699.6535
   4   1.0000     -25.707352      -699.5326
   5   1.0000      -4.117807      -112.0512
   6   1.0000      -4.115439      -111.9868
   7   1.0000      -4.110436      -111.8507
   8   1.0000      -4.108172      -111.7890
   9   1.0000      -4.103595      -111.6645
  10   1.0000      -4.103590      -111.6644
  11   1.0000      -4.103402      -111.6592
  12   1.0000      -4.103348      -111.6578
  13   1.0000      -4.102021      -111.6217
  14   1.0000      -4.095388      -111.4412
  15   1.0000      -3.348434       -91.1155
  16   1.0000      -2.308910       -62.8286
  17   1.0000      -2.303921       -62.6929
  18   1.0000      -2.303585       -62.6837
  19   1.0000      -2.302932       -62.6660
  20   1.0000      -2.300408       -62.5973
  21   1.0000      -2.299541       -62.5737
  22   1.0000      -2.298895       -62.5561
  23   1.0000      -2.297259       -62.5116
  24   1.0000      -2.296673       -62.4956
  25   1.0000      -2.294059       -62.4245
  26   1.0000      -2.293989       -62.4226
  27   1.0000      -2.293219       -62.4017
  28   1.0000      -2.292658       -62.3864
  29   1.0000      -2.292576       -62.3842
  30   1.0000      -2.290882       -62.3381
  31   1.0000      -2.290261       -62.3212
  32   1.0000      -2.289254       -62.2938
  33   1.0000      -2.289208       -62.2925
  34   1.0000      -2.288766       -62.2805
  35   1.0000      -2.287668       -62.2506
  36   1.0000      -2.287564       -62.2478
  37   1.0000      -2.287209       -62.2381
  38   1.0000      -2.286929       -62.2305
  39   1.0000      -2.286447       -62.2174
  40   1.0000      -2.285931       -62.2033
  41   1.0000      -2.285558       -62.1932
  42   1.0000      -2.285505       -62.1918
  43   1.0000      -2.284820       -62.1731
  44   1.0000      -2.282106       -62.0993
  45   1.0000      -2.273488       -61.8648
  46   1.0000      -2.116794       -57.6009
  47   1.0000      -2.115186       -57.5571
  48   1.0000      -2.113002       -57.4977
  49   1.0000      -0.417434       -11.3590
  50   1.0000      -0.380025       -10.3410
  51   1.0000      -0.376202       -10.2370
  52   1.0000      -0.362348        -9.8600
  53   1.0000      -0.356439        -9.6992
  54   1.0000      -0.352469        -9.5912
  55   1.0000      -0.349035        -9.4977
  56   1.0000      -0.346639        -9.4325
  57   1.0000      -0.340354        -9.2615
  58   1.0000      -0.337726        -9.1900
  59   1.0000      -0.335103        -9.1186
  60   1.0000      -0.331819        -9.0292
  61   1.0000      -0.330233        -8.9861
  62   1.0000      -0.328230        -8.9316
  63   1.0000      -0.327601        -8.9145
  64   1.0000      -0.325854        -8.8669
  65   1.0000      -0.324896        -8.8409
  66   1.0000      -0.322322        -8.7708
  67   1.0000      -0.318241        -8.6598
  68   1.0000      -0.314099        -8.5471
  69   1.0000      -0.310474        -8.4484
  70   1.0000      -0.309192        -8.4135
  71   1.0000      -0.304927        -8.2975
  72   1.0000      -0.301629        -8.2077
  73   1.0000      -0.299092        -8.1387
  74   1.0000      -0.297587        -8.0977
  75   1.0000      -0.294235        -8.0065
  76   1.0000      -0.289592        -7.8802
  77   1.0000      -0.288480        -7.8499
  78   1.0000      -0.286079        -7.7846
  79   1.0000      -0.284158        -7.7323
  80   1.0000      -0.284054        -7.7295
  81   1.0000      -0.281193        -7.6516
  82   1.0000      -0.278145        -7.5687
  83   1.0000      -0.276689        -7.5291
  84   1.0000      -0.276173        -7.5151
  85   1.0000      -0.276002        -7.5104
  86   1.0000      -0.270299        -7.3552
  87   1.0000      -0.269088        -7.3223
  88   1.0000      -0.266033        -7.2391
  89   1.0000      -0.264831        -7.2064
  90   1.0000      -0.261428        -7.1138
  91   1.0000      -0.259254        -7.0546
  92   1.0000      -0.256730        -6.9860
  93   1.0000      -0.255140        -6.9427
  94   1.0000      -0.254908        -6.9364
  95   1.0000      -0.254171        -6.9163
  96   1.0000      -0.252287        -6.8651
  97   1.0000      -0.252110        -6.8603
  98   1.0000      -0.245423        -6.6783
  99   1.0000      -0.244296        -6.6476
 100   1.0000      -0.241866        -6.5815
 101   1.0000      -0.239028        -6.5043
 102   1.0000      -0.232211        -6.3188
 103   1.0000      -0.208961        -5.6861
 104   1.0000      -0.196231        -5.3397
 105   1.0000      -0.184836        -5.0296
 106   1.0000      -0.179394        -4.8815
 107   0.0000      -0.149641        -4.0719
 108   0.0000      -0.145324        -3.9545
 109   0.0000      -0.144048        -3.9197
 110   0.0000      -0.133552        -3.6341
 111   0.0000      -0.129826        -3.5327

MULLIKEN ATOMIC CHARGES AND SPIN POPULATIONS
--------------------------------------------
   0 Au:    0.185394   -0.182073
   1 Au:   -0.062796   -0.075231
   2 Au:    0.270930    0.048847
   3 Au:    0.336047   -0.115346
   4 Au:    0.185340   -0.182347
   5 Au:    0.237934   -0.195753
   6 Au:    0.154212   -0.037963
   7 Au:    0.304351   -0.083684
   8 Au:    0.238260   -0.196845
   9 Au:   -0.119827   -0.023608
  10 Fe:   -1.729845    3.044004
Sum of atomic charges         :   -0.0000000

LOEWDIN ATOMIC CHARGES AND SPIN POPULATIONS
-------------------------------------------
   0 Au:    0.109605   -0.150592
   1 Au:   -0.078230   -0.073574
   2 Au:    0.084791    0.019119
   3 Au:    0.069542   -0.117956
   4 Au:    0.109979   -0.150617
   5 Au:    0.063308   -0.166165
   6 Au:    0.048545   -0.085008
   7 Au:    0.091905   -0.134661
   8 Au:    0.063634   -0.166486
   9 Au:    0.009411    0.002379
  10 Fe:   -0.572490    3.023561

  Mayer bond orders larger than 0.100000
B(  0-Au,  1-Au) :   0.1352 B(  0-Au,  3-Au) :   0.1596 B(  0-Au,  8-Au) :   0.2028
B(  0-Au, 10-Fe) :   0.7053 B(  1-Au,  2-Au) :   0.5428 B(  1-Au,  3-Au) :   0.3301
B(  1-Au,  4-Au) :   0.1391 B(  1-Au,  9-Au) :   0.2339 B(  1-Au, 10-Fe) :   0.5146
B(  2-Au,  9-Au) :   0.5203 B(  3-Au,  4-Au) :   0.1575 B(  3-Au,  6-Au) :   0.1826
B(  3-Au, 10-Fe) :   0.5197 B(  4-Au,  5-Au) :   0.2006 B(  4-Au, 10-Fe) :   0.7056
B(  5-Au,  6-Au) :   0.2443 B(  5-Au,  7-Au) :   0.1247 B(  5-Au, 10-Fe) :   0.6211
B(  6-Au,  8-Au) :   0.2438 B(  6-Au, 10-Fe) :   0.5562 B(  7-Au,  8-Au) :   0.1240
B(  7-Au,  9-Au) :   0.3956 B(  7-Au, 10-Fe) :   0.5886 B(  8-Au, 10-Fe) :   0.6203
B(  9-Au, 10-Fe) :   0.6909

FINAL SINGLE POINT ENERGY     -2622.115978294701

DIPOLE MOMENT
-------------
                                X             Y             Z
Electronic contribution:      5.88785      12.84323      -5.38265
Nuclear contribution   :     -5.98958     -12.82669       5.39523
                        -----------------------------------------
Total Dipole Moment    :     -0.10174       0.01654       0.01258
                        -----------------------------------------
Magnitude (a.u.)       :      0.10384
Magnitude (Debye)      :      0.26393

Rotational constants in cm-1:     0.002123     0.001496     0.001387
Rotational constants in MHz :    63.635694    44.852367    41.587551

                             ****ORCA TERMINATED NORMALLY****
TOTAL RUN TIME: 0 days 0 hours 5 minutes 22 seconds 19 msec
