                         Program Version 5.0.3 -  RELEASE  -
|  1> !RI-B2PLYP def2-TZVP def2-TZVP/C
|  2> !RIJCOSX VERYSLOWCONV
|  3>
|  4> %scf
|  5>   AutoTRAHIter 200
|  6>   maxiter 400
|  7> end
|  8>
|  9>
| 10> %pal nprocs 6 end
| 11>
| 12> *xyzfile 0 5 pbe.xyz
| 13>
| 14> $new_job
| 15>
| 16> !RI-B2PLYP def2-TZVP def2-TZVP/C
| 17> !RIJCOSX VERYSLOWCONV
| 18>
| 19> %scf
| 20>   AutoTRAHIter 200
| 21>   maxiter 400
| 22> end
| 23>
| 24>
| 25> %pal nprocs 6 end
| 26>
| 27> *xyzfile 0 3 pbe.xyz
| 28>
| 29>
| 30>
| 31>
| 32>
| 33>                          ****END OF INPUT****
 Total Charge           Charge          ....    0
 Multiplicity           Mult            ....    5
 Number of Electrons    NEL             ....  252
MP2 TOTAL ENERGY:    -2671.306979484 Eh
FINAL SINGLE POINT ENERGY     -2671.306979484037

CARTESIAN COORDINATES (ANGSTROEM)
---------------------------------
  Au     6.287668    7.829563   10.808696
  Au     6.496921   10.211340    9.433466
  Au     8.160671    5.844223   10.252461
  Au     9.309371    8.455637   10.251525
  Au     9.051277   10.083757    8.123070
  Au     4.874714    8.085624    8.423065
  Au     8.630047   10.488136    5.374669
  Au     8.656015    5.547804    7.499630
  Au     9.015610    7.884135    6.123113
  Au     6.243160    6.663736    6.441959
  Au     6.336932    9.398152    6.453652
  Au     6.984507   11.916855    7.324548
  Cr     7.577649    7.791260    8.450181

 Multiplicity           Mult            ....    3
 Number of Electrons    NEL             ....  252
 Basis Dimension        Dim             ....  525

ORBITAL ENERGIES
----------------
                 SPIN UP ORBITALS
  NO   OCC          E(Eh)            E(eV)
   0   1.0000    -217.745431     -5925.1544
   1   1.0000     -25.432809      -692.0619
   2   1.0000     -21.571871      -587.0005
   3   1.0000     -21.571617      -586.9935
   4   1.0000     -21.566981      -586.8674
   5   1.0000      -4.405080      -119.8683
   6   1.0000      -4.401162      -119.7617
   7   1.0000      -4.399172      -119.7076
   8   1.0000      -4.396012      -119.6216
   9   1.0000      -4.395866      -119.6176
  10   1.0000      -4.394850      -119.5900
  11   1.0000      -4.394752      -119.5873
  12   1.0000      -4.392140      -119.5162
  13   1.0000      -4.391895      -119.5095
  14   1.0000      -4.391406      -119.4962
  15   1.0000      -4.382528      -119.2546
  16   1.0000      -4.376676      -119.0954
  17   1.0000      -3.221690       -87.6667
  18   1.0000      -2.527438       -68.7751
  19   1.0000      -2.522491       -68.6405
  20   1.0000      -2.521981       -68.6266
  21   1.0000      -2.520940       -68.5983
  22   1.0000      -2.519291       -68.5534
  23   1.0000      -2.518520       -68.5324
  24   1.0000      -2.518136       -68.5220
  25   1.0000      -2.517752       -68.5115
  26   1.0000      -2.516586       -68.4798
  27   1.0000      -2.515754       -68.4571
  28   1.0000      -2.515610       -68.4532
  29   1.0000      -2.515072       -68.4386
  30   1.0000      -2.515010       -68.4369
  31   1.0000      -2.513687       -68.4009
  32   1.0000      -2.513060       -68.3838
  33   1.0000      -2.512455       -68.3674
  34   1.0000      -2.512200       -68.3604
  35   1.0000      -2.512170       -68.3596
  36   1.0000      -2.511716       -68.3473
  37   1.0000      -2.510928       -68.3258
  38   1.0000      -2.510644       -68.3181
  39   1.0000      -2.510179       -68.3054
  40   1.0000      -2.509849       -68.2965
  41   1.0000      -2.508761       -68.2669
  42   1.0000      -2.508142       -68.2500
  43   1.0000      -2.507891       -68.2432
  44   1.0000      -2.506778       -68.2129
  45   1.0000      -2.506597       -68.2080
  46   1.0000      -2.505707       -68.1838
  47   1.0000      -2.505653       -68.1823
  48   1.0000      -2.504148       -68.1413
  49   1.0000      -2.499085       -68.0036
  50   1.0000      -2.496044       -67.9208
  51   1.0000      -2.495009       -67.8926
  52   1.0000      -2.493028       -67.8387
  53   1.0000      -2.490823       -67.7787
  54   1.0000      -2.112728       -57.4903
  55   1.0000      -2.104522       -57.2669
  56   1.0000      -2.103668       -57.2437
  57   1.0000      -0.493356       -13.4249
  58   1.0000      -0.480814       -13.0836
  59   1.0000      -0.475560       -12.9407
  60   1.0000      -0.470323       -12.7981
  61   1.0000      -0.466027       -12.6813
  62   1.0000      -0.462482       -12.5848
  63   1.0000      -0.462191       -12.5768
  64   1.0000      -0.454673       -12.3723
  65   1.0000      -0.449549       -12.2328
  66   1.0000      -0.447495       -12.1770
  67   1.0000      -0.446627       -12.1533
  68   1.0000      -0.445111       -12.1121
  69   1.0000      -0.441664       -12.0183
  70   1.0000      -0.440508       -11.9868
  71   1.0000      -0.434262       -11.8169
  72   1.0000      -0.433389       -11.7931
  73   1.0000      -0.429138       -11.6774
  74   1.0000      -0.427627       -11.6363
  75   1.0000      -0.423345       -11.5198
  76   1.0000      -0.421725       -11.4757
  77   1.0000      -0.420281       -11.4364
  78   1.0000      -0.419120       -11.4048
  79   1.0000      -0.416288       -11.3278
  80   1.0000      -0.413172       -11.2430
  81   1.0000      -0.410006       -11.1568
  82   1.0000      -0.407184       -11.0800
  83   1.0000      -0.403519       -10.9803
  84   1.0000      -0.399006       -10.8575
  85   1.0000      -0.397327       -10.8118
  86   1.0000      -0.391472       -10.6525
  87   1.0000      -0.390056       -10.6140
  88   1.0000      -0.386721       -10.5232
  89   1.0000      -0.385435       -10.4882
  90   1.0000      -0.383357       -10.4317
  91   1.0000      -0.380488       -10.3536
  92   1.0000      -0.379561       -10.3284
  93   1.0000      -0.376007       -10.2317
  94   1.0000      -0.375229       -10.2105
  95   1.0000      -0.372611       -10.1392
  96   1.0000      -0.370817       -10.0904
  97   1.0000      -0.370429       -10.0799
  98   1.0000      -0.368729       -10.0336
  99   1.0000      -0.367172        -9.9913
 100   1.0000      -0.366216        -9.9653
 101   1.0000      -0.365159        -9.9365
 102   1.0000      -0.364086        -9.9073
 103   1.0000      -0.361326        -9.8322
 104   1.0000      -0.359881        -9.7929
 105   1.0000      -0.358367        -9.7517
 106   1.0000      -0.354932        -9.6582
 107   1.0000      -0.353812        -9.6277
 108   1.0000      -0.350398        -9.5348
 109   1.0000      -0.347950        -9.4682
 110   1.0000      -0.345612        -9.4046
 111   1.0000      -0.344458        -9.3732
 112   1.0000      -0.340907        -9.2765
 113   1.0000      -0.339071        -9.2266
 114   1.0000      -0.334416        -9.0999
 115   1.0000      -0.332794        -9.0558
 116   1.0000      -0.330145        -8.9837
 117   1.0000      -0.329271        -8.9599
 118   1.0000      -0.326335        -8.8800
 119   1.0000      -0.323593        -8.8054
 120   1.0000      -0.318634        -8.6705
 121   1.0000      -0.310339        -8.4448
 122   1.0000      -0.305812        -8.3216
 123   1.0000      -0.291638        -7.9359
 124   1.0000      -0.279569        -7.6075
 125   1.0000      -0.233419        -6.3517
 126   1.0000      -0.217647        -5.9225
 127   0.0000      -0.133315        -3.6277
 128   0.0000      -0.087524        -2.3816
 129   0.0000      -0.081440        -2.2161
 130   0.0000      -0.068595        -1.8666
 131   0.0000      -0.063429        -1.7260

                 SPIN DOWN ORBITALS
  NO   OCC          E(Eh)            E(eV)
   0   1.0000    -217.744099     -5925.1182
   1   1.0000     -25.362877      -690.1590
   2   1.0000     -21.511778      -585.3652
   3   1.0000     -21.510936      -585.3423
   4   1.0000     -21.494012      -584.8818
   5   1.0000      -4.406902      -119.9179
   6   1.0000      -4.400499      -119.7437
   7   1.0000      -4.400462      -119.7427
   8   1.0000      -4.397945      -119.6742
   9   1.0000      -4.396183      -119.6262
  10   1.0000      -4.394969      -119.5932
  11   1.0000      -4.394050      -119.5682
  12   1.0000      -4.392293      -119.5204
  13   1.0000      -4.391911      -119.5100
  14   1.0000      -4.391059      -119.4868
  15   1.0000      -4.382481      -119.2534
  16   1.0000      -4.375731      -119.0697
  17   1.0000      -3.006501       -81.8110
  18   1.0000      -2.529265       -68.8248
  19   1.0000      -2.524421       -68.6930
  20   1.0000      -2.521895       -68.6242
  21   1.0000      -2.520570       -68.5882
  22   1.0000      -2.519621       -68.5624
  23   1.0000      -2.519013       -68.5458
  24   1.0000      -2.518413       -68.5295
  25   1.0000      -2.517291       -68.4990
  26   1.0000      -2.516473       -68.4767
  27   1.0000      -2.515878       -68.4605
  28   1.0000      -2.515473       -68.4495
  29   1.0000      -2.515093       -68.4392
  30   1.0000      -2.514799       -68.4312
  31   1.0000      -2.513464       -68.3948
  32   1.0000      -2.512777       -68.3761
  33   1.0000      -2.512491       -68.3684
  34   1.0000      -2.511736       -68.3478
  35   1.0000      -2.511489       -68.3411
  36   1.0000      -2.510928       -68.3258
  37   1.0000      -2.510716       -68.3201
  38   1.0000      -2.510079       -68.3027
  39   1.0000      -2.509805       -68.2953
  40   1.0000      -2.509384       -68.2838
  41   1.0000      -2.508836       -68.2689
  42   1.0000      -2.507487       -68.2322
  43   1.0000      -2.507438       -68.2309
  44   1.0000      -2.506357       -68.2014
  45   1.0000      -2.506102       -68.1945
  46   1.0000      -2.505377       -68.1748
  47   1.0000      -2.504549       -68.1523
  48   1.0000      -2.503178       -68.1149
  49   1.0000      -2.498951       -67.9999
  50   1.0000      -2.495117       -67.8956
  51   1.0000      -2.494116       -67.8683
  52   1.0000      -2.492121       -67.8141
  53   1.0000      -2.489582       -67.7450
  54   1.0000      -1.874210       -50.9999
  55   1.0000      -1.871379       -50.9228
  56   1.0000      -1.832817       -49.8735
  57   1.0000      -0.490852       -13.3568
  58   1.0000      -0.477373       -12.9900
  59   1.0000      -0.472967       -12.8701
  60   1.0000      -0.466005       -12.6806
  61   1.0000      -0.461277       -12.5520
  62   1.0000      -0.458538       -12.4775
  63   1.0000      -0.456835       -12.4311
  64   1.0000      -0.452206       -12.3052
  65   1.0000      -0.448347       -12.2001
  66   1.0000      -0.445981       -12.1358
  67   1.0000      -0.442407       -12.0385
  68   1.0000      -0.441853       -12.0234
  69   1.0000      -0.438633       -11.9358
  70   1.0000      -0.437575       -11.9070
  71   1.0000      -0.435519       -11.8511
  72   1.0000      -0.428915       -11.6714
  73   1.0000      -0.425118       -11.5681
  74   1.0000      -0.423688       -11.5291
  75   1.0000      -0.422741       -11.5034
  76   1.0000      -0.421213       -11.4618
  77   1.0000      -0.418763       -11.3951
  78   1.0000      -0.417180       -11.3520
  79   1.0000      -0.415169       -11.2973
  80   1.0000      -0.411214       -11.1897
  81   1.0000      -0.409090       -11.1319
  82   1.0000      -0.404377       -11.0037
  83   1.0000      -0.398722       -10.8498
  84   1.0000      -0.395201       -10.7540
  85   1.0000      -0.394162       -10.7257
  86   1.0000      -0.391539       -10.6543
  87   1.0000      -0.389682       -10.6038
  88   1.0000      -0.387751       -10.5512
  89   1.0000      -0.384665       -10.4673
  90   1.0000      -0.382876       -10.4186
  91   1.0000      -0.380742       -10.3605
  92   1.0000      -0.379687       -10.3318
  93   1.0000      -0.375764       -10.2251
  94   1.0000      -0.375004       -10.2044
  95   1.0000      -0.372052       -10.1241
  96   1.0000      -0.370606       -10.0847
  97   1.0000      -0.369671       -10.0592
  98   1.0000      -0.368375       -10.0240
  99   1.0000      -0.365710        -9.9515
 100   1.0000      -0.364867        -9.9285
 101   1.0000      -0.363732        -9.8977
 102   1.0000      -0.362204        -9.8561
 103   1.0000      -0.359231        -9.7752
 104   1.0000      -0.358840        -9.7645
 105   1.0000      -0.357072        -9.7164
 106   1.0000      -0.355074        -9.6621
 107   1.0000      -0.354129        -9.6364
 108   1.0000      -0.350855        -9.5472
 109   1.0000      -0.349972        -9.5232
 110   1.0000      -0.345470        -9.4007
 111   1.0000      -0.344905        -9.3853
 112   1.0000      -0.341544        -9.2939
 113   1.0000      -0.335862        -9.1393
 114   1.0000      -0.332659        -9.0521
 115   1.0000      -0.330211        -8.9855
 116   1.0000      -0.329832        -8.9752
 117   1.0000      -0.323819        -8.8116
 118   1.0000      -0.320628        -8.7247
 119   1.0000      -0.307921        -8.3790
 120   1.0000      -0.295717        -8.0469
 121   1.0000      -0.237367        -6.4591
 122   1.0000      -0.230096        -6.2612
 123   1.0000      -0.217174        -5.9096
 124   1.0000      -0.176578        -4.8049
 125   0.0000      -0.098567        -2.6821
 126   0.0000      -0.077328        -2.1042
 127   0.0000      -0.069790        -1.8991
 128   0.0000      -0.060106        -1.6356
 129   0.0000      -0.036321        -0.9883

MULLIKEN ATOMIC CHARGES AND SPIN POPULATIONS
--------------------------------------------
   0 Au:    0.471266   -0.146844
   1 Au:    0.233131   -0.169848
   2 Au:    0.302302   -0.003107
   3 Au:    0.463762    0.010433
   4 Au:   -0.088662   -0.228983
   5 Au:    0.279129   -0.271518
   6 Au:    0.352731   -0.222931
   7 Au:    0.260097   -0.146159
   8 Au:    0.250659   -0.186814
   9 Au:    0.554925    0.007712
  10 Au:   -0.060215   -0.059471
  11 Au:    0.372218   -0.164492
  12 Cr:   -3.391343    3.582021
Sum of atomic charges         :    0.0000000

LOEWDIN ATOMIC CHARGES AND SPIN POPULATIONS
-------------------------------------------
   0 Au:    0.095471   -0.165648
   1 Au:    0.041114   -0.147299
   2 Au:    0.088025   -0.063437
   3 Au:    0.129452   -0.075776
   4 Au:   -0.020055   -0.159948
   5 Au:    0.101558   -0.189583
   6 Au:    0.116594   -0.221469
   7 Au:    0.126056   -0.111236
   8 Au:    0.065436   -0.153671
   9 Au:    0.154166   -0.081426
  10 Au:   -0.055009   -0.112559
  11 Au:    0.148897   -0.150197
  12 Cr:   -0.991705    3.632249

  Mayer bond orders larger than 0.100000
B(  0-Au,  1-Au) :   0.2270 B(  0-Au,  2-Au) :   0.2288 B(  0-Au,  5-Au) :   0.2001
B(  0-Au, 12-Cr) :   0.4843 B(  1-Au,  4-Au) :   0.1064 B(  1-Au,  5-Au) :   0.1339
B(  1-Au, 10-Au) :   0.1228 B(  1-Au, 11-Au) :   0.2614 B(  1-Au, 12-Cr) :   0.6091
B(  2-Au,  3-Au) :   0.1706 B(  2-Au,  7-Au) :   0.2564 B(  2-Au, 12-Cr) :   0.4483
B(  3-Au,  4-Au) :   0.3823 B(  3-Au, 12-Cr) :   0.7063 B(  4-Au,  6-Au) :   0.2584
B(  4-Au,  8-Au) :   0.1461 B(  4-Au, 10-Au) :   0.1040 B(  4-Au, 11-Au) :   0.1604
B(  4-Au, 12-Cr) :   0.4925 B(  5-Au,  9-Au) :   0.2125 B(  5-Au, 10-Au) :   0.1657
B(  5-Au, 12-Cr) :   0.5218 B(  6-Au,  8-Au) :   0.2307 B(  6-Au, 10-Au) :   0.2714
B(  6-Au, 11-Au) :   0.1505 B(  6-Au, 12-Cr) :   0.2406 B(  7-Au,  8-Au) :   0.2879
B(  7-Au,  9-Au) :   0.2029 B(  7-Au, 12-Cr) :   0.5893 B(  8-Au, 12-Cr) :   0.5647
B(  9-Au, 10-Au) :   0.2421 B(  9-Au, 12-Cr) :   0.5298 B( 10-Au, 11-Au) :   0.3428
B( 10-Au, 12-Cr) :   0.5693 B( 11-Au, 12-Cr) :   0.2451

MP2 TOTAL ENERGY:    -2671.276873944 Eh
FINAL SINGLE POINT ENERGY     -2671.276873943529

DIPOLE MOMENT
-------------
                                X             Y             Z
Electronic contribution:     -2.68955      26.41191     -14.74542
Nuclear contribution   :      2.58849     -26.07459      14.31090
                        -----------------------------------------
Total Dipole Moment    :     -0.10106       0.33732      -0.43452
                        -----------------------------------------
Magnitude (a.u.)       :      0.55929
Magnitude (Debye)      :      1.42160

Rotational constants in cm-1:     0.001606     0.001206     0.001074
Rotational constants in MHz :    48.133357    36.141325    32.209966

                             ****ORCA TERMINATED NORMALLY****
TOTAL RUN TIME: 0 days 1 hours 30 minutes 19 seconds 616 msec
