                         Program Version 5.0.3 -  RELEASE  -
|  1> !PBE def2-TZVP VERYSLOWCONV
|  2>
|  3> %scf
|  4>   AutoTRAHIter 200
|  5>   maxiter 400
|  6> end
|  7>
|  8>
|  9> %pal nprocs 6 end
| 10>
| 11> *xyzfile 0 5 pbe.xyz
| 12>
| 13> $new_job
| 14>
| 15> !PBE def2-TZVP VERYSLOWCONV
| 16>
| 17> %scf
| 18>   AutoTRAHIter 200
| 19>   maxiter 400
| 20> end
| 21>
| 22>
| 23> %pal nprocs 6 end
| 24>
| 25> *xyzfile 0 3 pbe.xyz
| 26>
| 27>
| 28>
| 29>
| 30>
| 31>                          ****END OF INPUT****
 Total Charge           Charge          ....    0
 Multiplicity           Mult            ....    5
 Number of Electrons    NEL             ....  252
FINAL SINGLE POINT ENERGY     -2674.153048167533

CARTESIAN COORDINATES (ANGSTROEM)
---------------------------------
  Au     6.287668    7.829563   10.808696
  Au     6.496921   10.211340    9.433466
  Au     8.160671    5.844223   10.252461
  Au     9.309371    8.455637   10.251525
  Au     9.051277   10.083757    8.123070
  Au     4.874714    8.085624    8.423065
  Au     8.630047   10.488136    5.374669
  Au     8.656015    5.547804    7.499630
  Au     9.015610    7.884135    6.123113
  Au     6.243160    6.663736    6.441959
  Au     6.336932    9.398152    6.453652
  Au     6.984507   11.916855    7.324548
  Cr     7.577649    7.791260    8.450181

 Multiplicity           Mult            ....    3
 Number of Electrons    NEL             ....  252
 Basis Dimension        Dim             ....  525

ORBITAL ENERGIES
----------------
                 SPIN UP ORBITALS
  NO   OCC          E(Eh)            E(eV)
   0   1.0000    -214.506674     -5837.0233
   1   1.0000     -24.309343      -661.4908
   2   1.0000     -20.675150      -562.5994
   3   1.0000     -20.673010      -562.5412
   4   1.0000     -20.670941      -562.4849
   5   1.0000      -4.034344      -109.7801
   6   1.0000      -4.028051      -109.6088
   7   1.0000      -4.027579      -109.5960
   8   1.0000      -4.026229      -109.5593
   9   1.0000      -4.025694      -109.5447
  10   1.0000      -4.025688      -109.5445
  11   1.0000      -4.023010      -109.4717
  12   1.0000      -4.021518      -109.4311
  13   1.0000      -4.020930      -109.4151
  14   1.0000      -4.019476      -109.3755
  15   1.0000      -4.014200      -109.2319
  16   1.0000      -4.010020      -109.1182
  17   1.0000      -2.805553       -76.3430
  18   1.0000      -2.252476       -61.2930
  19   1.0000      -2.245768       -61.1104
  20   1.0000      -2.245267       -61.0968
  21   1.0000      -2.245100       -61.0923
  22   1.0000      -2.244860       -61.0858
  23   1.0000      -2.244490       -61.0757
  24   1.0000      -2.243065       -61.0369
  25   1.0000      -2.242562       -61.0232
  26   1.0000      -2.240989       -60.9804
  27   1.0000      -2.240750       -60.9739
  28   1.0000      -2.240003       -60.9536
  29   1.0000      -2.239352       -60.9359
  30   1.0000      -2.238816       -60.9213
  31   1.0000      -2.237551       -60.8868
  32   1.0000      -2.237254       -60.8788
  33   1.0000      -2.237046       -60.8731
  34   1.0000      -2.236646       -60.8622
  35   1.0000      -2.236333       -60.8537
  36   1.0000      -2.235281       -60.8251
  37   1.0000      -2.234816       -60.8124
  38   1.0000      -2.234540       -60.8049
  39   1.0000      -2.234321       -60.7990
  40   1.0000      -2.234109       -60.7932
  41   1.0000      -2.233534       -60.7776
  42   1.0000      -2.232810       -60.7578
  43   1.0000      -2.232603       -60.7522
  44   1.0000      -2.231898       -60.7330
  45   1.0000      -2.231721       -60.7282
  46   1.0000      -2.231550       -60.7236
  47   1.0000      -2.230823       -60.7038
  48   1.0000      -2.230006       -60.6815
  49   1.0000      -2.227895       -60.6241
  50   1.0000      -2.225764       -60.5661
  51   1.0000      -2.222466       -60.4764
  52   1.0000      -2.220737       -60.4293
  53   1.0000      -2.219505       -60.3958
  54   1.0000      -1.797537       -48.9135
  55   1.0000      -1.794894       -48.8415
  56   1.0000      -1.791751       -48.7560
  57   1.0000      -0.421618       -11.4728
  58   1.0000      -0.385837       -10.4992
  59   1.0000      -0.379095       -10.3157
  60   1.0000      -0.376631       -10.2487
  61   1.0000      -0.364665        -9.9230
  62   1.0000      -0.361301        -9.8315
  63   1.0000      -0.358866        -9.7652
  64   1.0000      -0.354819        -9.6551
  65   1.0000      -0.348628        -9.4866
  66   1.0000      -0.347283        -9.4501
  67   1.0000      -0.343705        -9.3527
  68   1.0000      -0.340928        -9.2771
  69   1.0000      -0.338916        -9.2224
  70   1.0000      -0.337863        -9.1937
  71   1.0000      -0.334966        -9.1149
  72   1.0000      -0.332710        -9.0535
  73   1.0000      -0.330003        -8.9798
  74   1.0000      -0.326530        -8.8853
  75   1.0000      -0.323380        -8.7996
  76   1.0000      -0.320807        -8.7296
  77   1.0000      -0.318932        -8.6786
  78   1.0000      -0.317598        -8.6423
  79   1.0000      -0.316574        -8.6144
  80   1.0000      -0.312771        -8.5109
  81   1.0000      -0.311256        -8.4697
  82   1.0000      -0.309750        -8.4287
  83   1.0000      -0.305444        -8.3116
  84   1.0000      -0.302006        -8.2180
  85   1.0000      -0.298697        -8.1280
  86   1.0000      -0.293790        -7.9944
  87   1.0000      -0.293434        -7.9847
  88   1.0000      -0.289719        -7.8837
  89   1.0000      -0.286932        -7.8078
  90   1.0000      -0.284518        -7.7421
  91   1.0000      -0.281676        -7.6648
  92   1.0000      -0.280048        -7.6205
  93   1.0000      -0.278557        -7.5799
  94   1.0000      -0.277298        -7.5457
  95   1.0000      -0.274882        -7.4799
  96   1.0000      -0.274526        -7.4702
  97   1.0000      -0.273437        -7.4406
  98   1.0000      -0.272350        -7.4110
  99   1.0000      -0.270311        -7.3555
 100   1.0000      -0.270044        -7.3483
 101   1.0000      -0.267682        -7.2840
 102   1.0000      -0.266631        -7.2554
 103   1.0000      -0.265760        -7.2317
 104   1.0000      -0.265415        -7.2223
 105   1.0000      -0.264232        -7.1901
 106   1.0000      -0.261166        -7.1067
 107   1.0000      -0.259068        -7.0496
 108   1.0000      -0.257125        -6.9967
 109   1.0000      -0.255252        -6.9458
 110   1.0000      -0.254754        -6.9322
 111   1.0000      -0.252043        -6.8584
 112   1.0000      -0.250075        -6.8049
 113   1.0000      -0.248079        -6.7506
 114   1.0000      -0.247062        -6.7229
 115   1.0000      -0.242487        -6.5984
 116   1.0000      -0.241640        -6.5754
 117   1.0000      -0.240804        -6.5526
 118   1.0000      -0.240253        -6.5376
 119   1.0000      -0.238641        -6.4938
 120   1.0000      -0.233644        -6.3578
 121   1.0000      -0.216643        -5.8952
 122   1.0000      -0.214501        -5.8369
 123   1.0000      -0.212366        -5.7788
 124   1.0000      -0.208559        -5.6752
 125   1.0000      -0.206228        -5.6118
 126   1.0000      -0.190777        -5.1913
 127   0.0000      -0.185960        -5.0602
 128   0.0000      -0.167565        -4.5597
 129   0.0000      -0.153554        -4.1784
 130   0.0000      -0.148817        -4.0495
 131   0.0000      -0.131148        -3.5687

                 SPIN DOWN ORBITALS
  NO   OCC          E(Eh)            E(eV)
   0   1.0000    -214.506261     -5837.0121
   1   1.0000     -24.267228      -660.3449
   2   1.0000     -20.646015      -561.8066
   3   1.0000     -20.639114      -561.6188
   4   1.0000     -20.637396      -561.5721
   5   1.0000      -4.034610      -109.7873
   6   1.0000      -4.027538      -109.5949
   7   1.0000      -4.027119      -109.5835
   8   1.0000      -4.026309      -109.5614
   9   1.0000      -4.025982      -109.5525
  10   1.0000      -4.025418      -109.5372
  11   1.0000      -4.022953      -109.4701
  12   1.0000      -4.021744      -109.4372
  13   1.0000      -4.021141      -109.4208
  14   1.0000      -4.019656      -109.3804
  15   1.0000      -4.013679      -109.2178
  16   1.0000      -4.009037      -109.0914
  17   1.0000      -2.692623       -73.2700
  18   1.0000      -2.252846       -61.3030
  19   1.0000      -2.246619       -61.1336
  20   1.0000      -2.244973       -61.0888
  21   1.0000      -2.244468       -61.0751
  22   1.0000      -2.244225       -61.0685
  23   1.0000      -2.243929       -61.0604
  24   1.0000      -2.243380       -61.0455
  25   1.0000      -2.242167       -61.0125
  26   1.0000      -2.240915       -60.9784
  27   1.0000      -2.240406       -60.9646
  28   1.0000      -2.239919       -60.9513
  29   1.0000      -2.239225       -60.9324
  30   1.0000      -2.238203       -60.9046
  31   1.0000      -2.237292       -60.8798
  32   1.0000      -2.237192       -60.8771
  33   1.0000      -2.237128       -60.8753
  34   1.0000      -2.236432       -60.8564
  35   1.0000      -2.236148       -60.8487
  36   1.0000      -2.235810       -60.8395
  37   1.0000      -2.235009       -60.8177
  38   1.0000      -2.234775       -60.8113
  39   1.0000      -2.234315       -60.7988
  40   1.0000      -2.233809       -60.7850
  41   1.0000      -2.233612       -60.7797
  42   1.0000      -2.232886       -60.7599
  43   1.0000      -2.232573       -60.7514
  44   1.0000      -2.231980       -60.7353
  45   1.0000      -2.231713       -60.7280
  46   1.0000      -2.231582       -60.7244
  47   1.0000      -2.230816       -60.7036
  48   1.0000      -2.230231       -60.6877
  49   1.0000      -2.227636       -60.6171
  50   1.0000      -2.224182       -60.5231
  51   1.0000      -2.221776       -60.4576
  52   1.0000      -2.220283       -60.4170
  53   1.0000      -2.218666       -60.3730
  54   1.0000      -1.696117       -46.1537
  55   1.0000      -1.678778       -45.6819
  56   1.0000      -1.675771       -45.6000
  57   1.0000      -0.417788       -11.3686
  58   1.0000      -0.383303       -10.4302
  59   1.0000      -0.378099       -10.2886
  60   1.0000      -0.375942       -10.2299
  61   1.0000      -0.362766        -9.8714
  62   1.0000      -0.361286        -9.8311
  63   1.0000      -0.356400        -9.6981
  64   1.0000      -0.351900        -9.5757
  65   1.0000      -0.348362        -9.4794
  66   1.0000      -0.346431        -9.4269
  67   1.0000      -0.343114        -9.3366
  68   1.0000      -0.338281        -9.2051
  69   1.0000      -0.338232        -9.2038
  70   1.0000      -0.337101        -9.1730
  71   1.0000      -0.334129        -9.0921
  72   1.0000      -0.331849        -9.0301
  73   1.0000      -0.327443        -8.9102
  74   1.0000      -0.325727        -8.8635
  75   1.0000      -0.323309        -8.7977
  76   1.0000      -0.320700        -8.7267
  77   1.0000      -0.319940        -8.7060
  78   1.0000      -0.317702        -8.6451
  79   1.0000      -0.316419        -8.6102
  80   1.0000      -0.310625        -8.4525
  81   1.0000      -0.310338        -8.4447
  82   1.0000      -0.307577        -8.3696
  83   1.0000      -0.303899        -8.2695
  84   1.0000      -0.300964        -8.1896
  85   1.0000      -0.298101        -8.1117
  86   1.0000      -0.294490        -8.0135
  87   1.0000      -0.293474        -7.9858
  88   1.0000      -0.289743        -7.8843
  89   1.0000      -0.286940        -7.8080
  90   1.0000      -0.285355        -7.7649
  91   1.0000      -0.281342        -7.6557
  92   1.0000      -0.280463        -7.6318
  93   1.0000      -0.279400        -7.6029
  94   1.0000      -0.277432        -7.5493
  95   1.0000      -0.275765        -7.5040
  96   1.0000      -0.274677        -7.4744
  97   1.0000      -0.273210        -7.4344
  98   1.0000      -0.272711        -7.4209
  99   1.0000      -0.270793        -7.3686
 100   1.0000      -0.269796        -7.3415
 101   1.0000      -0.267604        -7.2819
 102   1.0000      -0.267178        -7.2703
 103   1.0000      -0.266268        -7.2455
 104   1.0000      -0.265967        -7.2373
 105   1.0000      -0.264385        -7.1943
 106   1.0000      -0.261580        -7.1180
 107   1.0000      -0.259281        -7.0554
 108   1.0000      -0.257713        -7.0127
 109   1.0000      -0.255991        -6.9659
 110   1.0000      -0.255131        -6.9425
 111   1.0000      -0.252528        -6.8716
 112   1.0000      -0.250779        -6.8240
 113   1.0000      -0.248447        -6.7606
 114   1.0000      -0.247930        -6.7465
 115   1.0000      -0.243618        -6.6292
 116   1.0000      -0.242829        -6.6077
 117   1.0000      -0.242334        -6.5943
 118   1.0000      -0.240851        -6.5539
 119   1.0000      -0.239400        -6.5144
 120   1.0000      -0.234530        -6.3819
 121   1.0000      -0.208557        -5.6751
 122   1.0000      -0.207342        -5.6421
 123   1.0000      -0.201061        -5.4712
 124   1.0000      -0.167588        -4.5603
 125   0.0000      -0.163401        -4.4464
 126   0.0000      -0.144260        -3.9255
 127   0.0000      -0.142170        -3.8687
 128   0.0000      -0.125880        -3.4254
 129   0.0000      -0.115705        -3.1485

MULLIKEN ATOMIC CHARGES AND SPIN POPULATIONS
--------------------------------------------
   0 Au:    0.496506   -0.071394
   1 Au:    0.274399   -0.119579
   2 Au:    0.351709    0.038099
   3 Au:    0.465223    0.008557
   4 Au:    0.004719   -0.131330
   5 Au:    0.318697   -0.186869
   6 Au:    0.392468   -0.136732
   7 Au:    0.312164   -0.069874
   8 Au:    0.244025   -0.052792
   9 Au:    0.507206    0.009661
  10 Au:    0.002728   -0.067314
  11 Au:    0.325979    0.023655
  12 Cr:   -3.695822    2.755913
Sum of atomic charges         :   -0.0000000

LOEWDIN ATOMIC CHARGES AND SPIN POPULATIONS
-------------------------------------------
   0 Au:    0.118635   -0.106380
   1 Au:    0.055526   -0.109282
   2 Au:    0.097925   -0.005467
   3 Au:    0.158276   -0.050304
   4 Au:    0.009148   -0.068926
   5 Au:    0.124613   -0.124531
   6 Au:    0.098589   -0.121714
   7 Au:    0.148419   -0.068199
   8 Au:    0.088427   -0.096141
   9 Au:    0.164712   -0.050255
  10 Au:   -0.029951   -0.063862
  11 Au:    0.105797   -0.022490
  12 Cr:   -1.140115    2.887551

  Mayer bond orders larger than 0.100000
B(  0-Au,  1-Au) :   0.2692 B(  0-Au,  2-Au) :   0.2586 B(  0-Au,  5-Au) :   0.2373
B(  0-Au, 12-Cr) :   0.6730 B(  1-Au,  4-Au) :   0.1533 B(  1-Au,  5-Au) :   0.1570
B(  1-Au, 10-Au) :   0.1311 B(  1-Au, 11-Au) :   0.3306 B(  1-Au, 12-Cr) :   0.7021
B(  2-Au,  3-Au) :   0.1920 B(  2-Au,  7-Au) :   0.3023 B(  2-Au, 12-Cr) :   0.4969
B(  3-Au,  4-Au) :   0.4103 B(  3-Au, 12-Cr) :   0.9042 B(  4-Au,  6-Au) :   0.2786
B(  4-Au,  8-Au) :   0.1801 B(  4-Au, 11-Au) :   0.2045 B(  4-Au, 12-Cr) :   0.5422
B(  5-Au,  9-Au) :   0.2379 B(  5-Au, 10-Au) :   0.2224 B(  5-Au, 12-Cr) :   0.5919
B(  6-Au,  8-Au) :   0.2934 B(  6-Au, 10-Au) :   0.3021 B(  6-Au, 11-Au) :   0.1608
B(  6-Au, 12-Cr) :   0.2925 B(  7-Au,  8-Au) :   0.3106 B(  7-Au,  9-Au) :   0.2415
B(  7-Au, 12-Cr) :   0.6766 B(  8-Au, 12-Cr) :   0.7349 B(  9-Au, 10-Au) :   0.3068
B(  9-Au, 12-Cr) :   0.7047 B( 10-Au, 11-Au) :   0.3891 B( 10-Au, 12-Cr) :   0.5690
B( 11-Au, 12-Cr) :   0.2653

FINAL SINGLE POINT ENERGY     -2674.135193374765

DIPOLE MOMENT
-------------
                                X             Y             Z
Electronic contribution:     -2.63832      26.14346     -14.61598
Nuclear contribution   :      2.58849     -26.07459      14.31090
                        -----------------------------------------
Total Dipole Moment    :     -0.04984       0.06887      -0.30508
                        -----------------------------------------
Magnitude (a.u.)       :      0.31670
Magnitude (Debye)      :      0.80499

Rotational constants in cm-1:     0.001606     0.001206     0.001074
Rotational constants in MHz :    48.133357    36.141325    32.209966

                             ****ORCA TERMINATED NORMALLY****
TOTAL RUN TIME: 0 days 1 hours 10 minutes 28 seconds 285 msec
