                         Program Version 5.0.3 -  RELEASE  -
|  1> !R2SCAN def2-TZVP VERYSLOWCONV
|  2> !KDIIS
|  3> %scf
|  4>   AutoTRAHIter 200
|  5>   maxiter 400
|  6> end
|  7>
|  8> %pal nprocs 6 end
|  9>
| 10> *xyzfile 0 5 pbe.xyz
| 11>
| 12> $new_job
| 13>
| 14> !R2SCAN def2-TZVP VERYSLOWCONV
| 15> !KDIIS
| 16> %scf
| 17>   AutoTRAHIter 200
| 18>   maxiter 400
| 19> end
| 20>
| 21>
| 22> %pal nprocs 6 end
| 23>
| 24> *xyzfile 0 3 pbe.xyz
| 25>
| 26>
| 27>
| 28>
| 29>
| 30>                          ****END OF INPUT****
 Total Charge           Charge          ....    0
 Multiplicity           Mult            ....    5
 Number of Electrons    NEL             ....  252
FINAL SINGLE POINT ENERGY     -2674.588603704067

CARTESIAN COORDINATES (ANGSTROEM)
---------------------------------
  Au     6.287668    7.829563   10.808696
  Au     6.496921   10.211340    9.433466
  Au     8.160671    5.844223   10.252461
  Au     9.309371    8.455637   10.251525
  Au     9.051277   10.083757    8.123070
  Au     4.874714    8.085624    8.423065
  Au     8.630047   10.488136    5.374669
  Au     8.656015    5.547804    7.499630
  Au     9.015610    7.884135    6.123113
  Au     6.243160    6.663736    6.441959
  Au     6.336932    9.398152    6.453652
  Au     6.984507   11.916855    7.324548
  Cr     7.577649    7.791260    8.450181

 Multiplicity           Mult            ....    3
 Number of Electrons    NEL             ....  252
 Basis Dimension        Dim             ....  525

ORBITAL ENERGIES
----------------
                 SPIN UP ORBITALS
  NO   OCC          E(Eh)            E(eV)
   0   1.0000    -215.304202     -5858.7252
   1   1.0000     -24.607287      -669.5983
   2   1.0000     -20.875519      -568.0517
   3   1.0000     -20.873620      -568.0001
   4   1.0000     -20.872045      -567.9572
   5   1.0000      -4.124711      -112.2391
   6   1.0000      -4.119728      -112.1035
   7   1.0000      -4.117365      -112.0392
   8   1.0000      -4.116762      -112.0228
   9   1.0000      -4.116562      -112.0174
  10   1.0000      -4.116357      -112.0118
  11   1.0000      -4.113595      -111.9366
  12   1.0000      -4.111811      -111.8881
  13   1.0000      -4.111175      -111.8707
  14   1.0000      -4.110947      -111.8646
  15   1.0000      -4.104650      -111.6932
  16   1.0000      -4.099293      -111.5474
  17   1.0000      -2.920893       -79.4815
  18   1.0000      -2.315714       -63.0138
  19   1.0000      -2.309835       -62.8538
  20   1.0000      -2.308842       -62.8268
  21   1.0000      -2.308290       -62.8118
  22   1.0000      -2.307916       -62.8016
  23   1.0000      -2.307461       -62.7892
  24   1.0000      -2.306934       -62.7749
  25   1.0000      -2.306079       -62.7516
  26   1.0000      -2.305009       -62.7225
  27   1.0000      -2.303791       -62.6893
  28   1.0000      -2.303704       -62.6870
  29   1.0000      -2.302703       -62.6597
  30   1.0000      -2.302003       -62.6407
  31   1.0000      -2.301645       -62.6309
  32   1.0000      -2.300513       -62.6001
  33   1.0000      -2.300153       -62.5903
  34   1.0000      -2.300062       -62.5879
  35   1.0000      -2.299657       -62.5768
  36   1.0000      -2.299125       -62.5624
  37   1.0000      -2.298275       -62.5393
  38   1.0000      -2.298233       -62.5381
  39   1.0000      -2.297888       -62.5287
  40   1.0000      -2.297397       -62.5153
  41   1.0000      -2.297016       -62.5050
  42   1.0000      -2.296149       -62.4814
  43   1.0000      -2.295881       -62.4741
  44   1.0000      -2.295818       -62.4724
  45   1.0000      -2.295207       -62.4558
  46   1.0000      -2.294510       -62.4368
  47   1.0000      -2.294335       -62.4320
  48   1.0000      -2.294275       -62.4304
  49   1.0000      -2.290824       -62.3365
  50   1.0000      -2.287663       -62.2505
  51   1.0000      -2.284683       -62.1694
  52   1.0000      -2.284446       -62.1629
  53   1.0000      -2.281709       -62.0885
  54   1.0000      -1.869171       -50.8627
  55   1.0000      -1.866859       -50.7998
  56   1.0000      -1.865824       -50.7717
  57   1.0000      -0.426520       -11.6062
  58   1.0000      -0.392661       -10.6848
  59   1.0000      -0.386586       -10.5195
  60   1.0000      -0.383447       -10.4341
  61   1.0000      -0.372929       -10.1479
  62   1.0000      -0.369903       -10.0656
  63   1.0000      -0.367896       -10.0110
  64   1.0000      -0.362346        -9.8599
  65   1.0000      -0.356940        -9.7128
  66   1.0000      -0.356114        -9.6903
  67   1.0000      -0.352506        -9.5922
  68   1.0000      -0.350230        -9.5303
  69   1.0000      -0.348079        -9.4717
  70   1.0000      -0.346774        -9.4362
  71   1.0000      -0.343469        -9.3463
  72   1.0000      -0.341181        -9.2840
  73   1.0000      -0.338838        -9.2203
  74   1.0000      -0.335286        -9.1236
  75   1.0000      -0.332010        -9.0344
  76   1.0000      -0.329176        -8.9573
  77   1.0000      -0.327923        -8.9232
  78   1.0000      -0.326117        -8.8741
  79   1.0000      -0.325368        -8.8537
  80   1.0000      -0.321455        -8.7472
  81   1.0000      -0.319772        -8.7014
  82   1.0000      -0.318300        -8.6614
  83   1.0000      -0.313289        -8.5250
  84   1.0000      -0.310626        -8.4526
  85   1.0000      -0.306828        -8.3492
  86   1.0000      -0.302114        -8.2209
  87   1.0000      -0.301427        -8.2022
  88   1.0000      -0.298300        -8.1172
  89   1.0000      -0.294911        -8.0249
  90   1.0000      -0.292975        -7.9723
  91   1.0000      -0.289880        -7.8880
  92   1.0000      -0.288460        -7.8494
  93   1.0000      -0.286580        -7.7982
  94   1.0000      -0.285404        -7.7662
  95   1.0000      -0.283176        -7.7056
  96   1.0000      -0.282518        -7.6877
  97   1.0000      -0.281387        -7.6569
  98   1.0000      -0.280521        -7.6334
  99   1.0000      -0.277925        -7.5627
 100   1.0000      -0.277456        -7.5500
 101   1.0000      -0.275926        -7.5083
 102   1.0000      -0.275125        -7.4865
 103   1.0000      -0.273551        -7.4437
 104   1.0000      -0.273270        -7.4361
 105   1.0000      -0.272174        -7.4062
 106   1.0000      -0.268705        -7.3118
 107   1.0000      -0.266339        -7.2474
 108   1.0000      -0.265170        -7.2156
 109   1.0000      -0.262703        -7.1485
 110   1.0000      -0.262151        -7.1335
 111   1.0000      -0.259553        -7.0628
 112   1.0000      -0.257276        -7.0008
 113   1.0000      -0.255164        -6.9434
 114   1.0000      -0.254083        -6.9140
 115   1.0000      -0.248756        -6.7690
 116   1.0000      -0.247947        -6.7470
 117   1.0000      -0.246780        -6.7152
 118   1.0000      -0.245440        -6.6788
 119   1.0000      -0.243706        -6.6316
 120   1.0000      -0.240034        -6.5317
 121   1.0000      -0.225871        -6.1463
 122   1.0000      -0.223725        -6.0879
 123   1.0000      -0.221640        -6.0311
 124   1.0000      -0.214559        -5.8385
 125   1.0000      -0.212618        -5.7856
 126   1.0000      -0.194819        -5.3013
 127   0.0000      -0.184195        -5.0122
 128   0.0000      -0.165621        -4.5068
 129   0.0000      -0.150181        -4.0866
 130   0.0000      -0.144835        -3.9412
 131   0.0000      -0.125328        -3.4104

                 SPIN DOWN ORBITALS
  NO   OCC          E(Eh)            E(eV)
   0   1.0000    -215.303584     -5858.7084
   1   1.0000     -24.548661      -668.0030
   2   1.0000     -20.833349      -566.9042
   3   1.0000     -20.826910      -566.7290
   4   1.0000     -20.825410      -566.6882
   5   1.0000      -4.125332      -112.2560
   6   1.0000      -4.119281      -112.0913
   7   1.0000      -4.117394      -112.0400
   8   1.0000      -4.117114      -112.0324
   9   1.0000      -4.116713      -112.0215
  10   1.0000      -4.116318      -112.0107
  11   1.0000      -4.113750      -111.9408
  12   1.0000      -4.112065      -111.8950
  13   1.0000      -4.111732      -111.8859
  14   1.0000      -4.111482      -111.8791
  15   1.0000      -4.104278      -111.6831
  16   1.0000      -4.098182      -111.5172
  17   1.0000      -2.768600       -75.3374
  18   1.0000      -2.316370       -63.0316
  19   1.0000      -2.310399       -62.8691
  20   1.0000      -2.308792       -62.8254
  21   1.0000      -2.308024       -62.8045
  22   1.0000      -2.307562       -62.7920
  23   1.0000      -2.307365       -62.7866
  24   1.0000      -2.306734       -62.7694
  25   1.0000      -2.305713       -62.7416
  26   1.0000      -2.304613       -62.7117
  27   1.0000      -2.304110       -62.6980
  28   1.0000      -2.303946       -62.6936
  29   1.0000      -2.302859       -62.6640
  30   1.0000      -2.301691       -62.6322
  31   1.0000      -2.301075       -62.6154
  32   1.0000      -2.300416       -62.5975
  33   1.0000      -2.300384       -62.5966
  34   1.0000      -2.299842       -62.5819
  35   1.0000      -2.299522       -62.5732
  36   1.0000      -2.299072       -62.5609
  37   1.0000      -2.299044       -62.5602
  38   1.0000      -2.298489       -62.5451
  39   1.0000      -2.297794       -62.5262
  40   1.0000      -2.297606       -62.5210
  41   1.0000      -2.297058       -62.5061
  42   1.0000      -2.296333       -62.4864
  43   1.0000      -2.296206       -62.4829
  44   1.0000      -2.295734       -62.4701
  45   1.0000      -2.295027       -62.4509
  46   1.0000      -2.294900       -62.4474
  47   1.0000      -2.294804       -62.4448
  48   1.0000      -2.294257       -62.4299
  49   1.0000      -2.290469       -62.3268
  50   1.0000      -2.285759       -62.1987
  51   1.0000      -2.283972       -62.1500
  52   1.0000      -2.283681       -62.1421
  53   1.0000      -2.280621       -62.0588
  54   1.0000      -1.726363       -46.9767
  55   1.0000      -1.711070       -46.5606
  56   1.0000      -1.708055       -46.4785
  57   1.0000      -0.422704       -11.5023
  58   1.0000      -0.390158       -10.6167
  59   1.0000      -0.385768       -10.4973
  60   1.0000      -0.382896       -10.4191
  61   1.0000      -0.370857       -10.0915
  62   1.0000      -0.370148       -10.0722
  63   1.0000      -0.364904        -9.9296
  64   1.0000      -0.359573        -9.7845
  65   1.0000      -0.357270        -9.7218
  66   1.0000      -0.355542        -9.6748
  67   1.0000      -0.352246        -9.5851
  68   1.0000      -0.347647        -9.4600
  69   1.0000      -0.347134        -9.4460
  70   1.0000      -0.346167        -9.4197
  71   1.0000      -0.342877        -9.3302
  72   1.0000      -0.341045        -9.2803
  73   1.0000      -0.336251        -9.1499
  74   1.0000      -0.334739        -9.1087
  75   1.0000      -0.332360        -9.0440
  76   1.0000      -0.329774        -8.9736
  77   1.0000      -0.328944        -8.9510
  78   1.0000      -0.326717        -8.8904
  79   1.0000      -0.325560        -8.8589
  80   1.0000      -0.319369        -8.6905
  81   1.0000      -0.319163        -8.6849
  82   1.0000      -0.315871        -8.5953
  83   1.0000      -0.311783        -8.4840
  84   1.0000      -0.309582        -8.4241
  85   1.0000      -0.306727        -8.3465
  86   1.0000      -0.302749        -8.2382
  87   1.0000      -0.301891        -8.2149
  88   1.0000      -0.298562        -8.1243
  89   1.0000      -0.295226        -8.0335
  90   1.0000      -0.294213        -8.0060
  91   1.0000      -0.290169        -7.8959
  92   1.0000      -0.288896        -7.8613
  93   1.0000      -0.288166        -7.8414
  94   1.0000      -0.285987        -7.7821
  95   1.0000      -0.284472        -7.7409
  96   1.0000      -0.283210        -7.7065
  97   1.0000      -0.282110        -7.6766
  98   1.0000      -0.280757        -7.6398
  99   1.0000      -0.279034        -7.5929
 100   1.0000      -0.277650        -7.5552
 101   1.0000      -0.276196        -7.5157
 102   1.0000      -0.275075        -7.4852
 103   1.0000      -0.274571        -7.4715
 104   1.0000      -0.274188        -7.4610
 105   1.0000      -0.272380        -7.4118
 106   1.0000      -0.269398        -7.3307
 107   1.0000      -0.266758        -7.2589
 108   1.0000      -0.265808        -7.2330
 109   1.0000      -0.264177        -7.1886
 110   1.0000      -0.262851        -7.1525
 111   1.0000      -0.260144        -7.0789
 112   1.0000      -0.258537        -7.0352
 113   1.0000      -0.255853        -6.9621
 114   1.0000      -0.255398        -6.9497
 115   1.0000      -0.250322        -6.8116
 116   1.0000      -0.249969        -6.8020
 117   1.0000      -0.248931        -6.7737
 118   1.0000      -0.247403        -6.7322
 119   1.0000      -0.245596        -6.6830
 120   1.0000      -0.241395        -6.5687
 121   1.0000      -0.210171        -5.7190
 122   1.0000      -0.209882        -5.7112
 123   1.0000      -0.202334        -5.5058
 124   1.0000      -0.166522        -4.5313
 125   0.0000      -0.160190        -4.3590
 126   0.0000      -0.138303        -3.7634
 127   0.0000      -0.134938        -3.6718
 128   0.0000      -0.119460        -3.2507
 129   0.0000      -0.098327        -2.6756

MULLIKEN ATOMIC CHARGES AND SPIN POPULATIONS
--------------------------------------------
   0 Au:    0.461129   -0.100886
   1 Au:    0.227756   -0.155500
   2 Au:    0.300888    0.043904
   3 Au:    0.434590   -0.014770
   4 Au:   -0.002225   -0.165560
   5 Au:    0.278381   -0.241664
   6 Au:    0.356051   -0.157630
   7 Au:    0.281725   -0.110960
   8 Au:    0.208281   -0.085464
   9 Au:    0.490871   -0.002452
  10 Au:   -0.005335   -0.076876
  11 Au:    0.307276   -0.016881
  12 Cr:   -3.339387    3.084739
Sum of atomic charges         :   -0.0000000

LOEWDIN ATOMIC CHARGES AND SPIN POPULATIONS
-------------------------------------------
   0 Au:    0.113496   -0.127453
   1 Au:    0.054655   -0.133738
   2 Au:    0.086948   -0.009601
   3 Au:    0.152043   -0.067910
   4 Au:    0.001261   -0.095449
   5 Au:    0.113832   -0.160331
   6 Au:    0.094532   -0.142728
   7 Au:    0.142757   -0.091108
   8 Au:    0.082620   -0.116753
   9 Au:    0.165414   -0.069426
  10 Au:   -0.033139   -0.080846
  11 Au:    0.108826   -0.052128
  12 Cr:   -1.083246    3.147473

  Mayer bond orders larger than 0.100000
B(  0-Au,  1-Au) :   0.2668 B(  0-Au,  2-Au) :   0.2520 B(  0-Au,  5-Au) :   0.2226
B(  0-Au, 12-Cr) :   0.6609 B(  1-Au,  4-Au) :   0.1328 B(  1-Au,  5-Au) :   0.1399
B(  1-Au, 10-Au) :   0.1233 B(  1-Au, 11-Au) :   0.3167 B(  1-Au, 12-Cr) :   0.6952
B(  2-Au,  3-Au) :   0.1807 B(  2-Au,  7-Au) :   0.2869 B(  2-Au, 12-Cr) :   0.4897
B(  3-Au,  4-Au) :   0.4082 B(  3-Au, 12-Cr) :   0.8855 B(  4-Au,  6-Au) :   0.2700
B(  4-Au,  8-Au) :   0.1590 B(  4-Au, 11-Au) :   0.1816 B(  4-Au, 12-Cr) :   0.5111
B(  5-Au,  9-Au) :   0.2291 B(  5-Au, 10-Au) :   0.2029 B(  5-Au, 12-Cr) :   0.5589
B(  6-Au,  8-Au) :   0.2800 B(  6-Au, 10-Au) :   0.2921 B(  6-Au, 11-Au) :   0.1525
B(  6-Au, 12-Cr) :   0.2748 B(  7-Au,  8-Au) :   0.3019 B(  7-Au,  9-Au) :   0.2229
B(  7-Au, 12-Cr) :   0.6684 B(  8-Au, 12-Cr) :   0.7344 B(  9-Au, 10-Au) :   0.3119
B(  9-Au, 12-Cr) :   0.6701 B( 10-Au, 11-Au) :   0.3840 B( 10-Au, 12-Cr) :   0.5566
B( 11-Au, 12-Cr) :   0.2549

FINAL SINGLE POINT ENERGY     -2674.566767364032

DIPOLE MOMENT
-------------
                                X             Y             Z
Electronic contribution:     -2.64795      26.17286     -14.63870
Nuclear contribution   :      2.58849     -26.07459      14.31090
                        -----------------------------------------
Total Dipole Moment    :     -0.05946       0.09827      -0.32780
                        -----------------------------------------
Magnitude (a.u.)       :      0.34734
Magnitude (Debye)      :      0.88286

Rotational constants in cm-1:     0.001606     0.001206     0.001074
Rotational constants in MHz :    48.133357    36.141325    32.209966

                             ****ORCA TERMINATED NORMALLY****
TOTAL RUN TIME: 0 days 0 hours 30 minutes 20 seconds 232 msec
