                         Program Version 5.0.3 -  RELEASE  -
|  1> %pal nprocs 1 end
|  2>
|  3> !PBE def2-TZVP OPT UNO
|  4> !SLOWCONV KDIIS
|  5>
|  6> %geom maxiter 300 end
|  7>
|  8> *xyzfile 0 5 4.xyz                           ****END OF INPUT****
 Total Charge           Charge          ....    0
 Multiplicity           Mult            ....    5
 Number of Electrons    NEL             ....  214
FINAL SINGLE POINT ENERGY     -2402.468529027698
FINAL SINGLE POINT ENERGY     -2402.470561991807
FINAL SINGLE POINT ENERGY     -2402.471772036406
FINAL SINGLE POINT ENERGY     -2402.471874464990
FINAL SINGLE POINT ENERGY     -2402.472134234278
FINAL SINGLE POINT ENERGY     -2402.472342548535
FINAL SINGLE POINT ENERGY     -2402.472512579597
FINAL SINGLE POINT ENERGY     -2402.472618774313
FINAL SINGLE POINT ENERGY     -2402.472654651720
FINAL SINGLE POINT ENERGY     -2402.472705257760
FINAL SINGLE POINT ENERGY     -2402.498174071444
FINAL SINGLE POINT ENERGY     -2402.498182183254
FINAL SINGLE POINT ENERGY     -2402.498187735945
FINAL SINGLE POINT ENERGY     -2402.498192218998
FINAL SINGLE POINT ENERGY     -2402.498194423833
FINAL SINGLE POINT ENERGY     -2402.498196038249
FINAL SINGLE POINT ENERGY     -2402.498197316636
FINAL SINGLE POINT ENERGY     -2402.498197686022
FINAL SINGLE POINT ENERGY     -2402.498198466676
                    ***********************HURRAY********************

CARTESIAN COORDINATES (ANGSTROEM)
---------------------------------
  Au     9.346472    5.337908    7.562423
  Au     8.869469    3.321015    9.406400
  Au    10.317889    4.916169   11.258274
  Au     8.721444    8.027830    8.089398
  Au     5.595484    5.372158   10.604199
  Au    10.746670    6.907953    9.464028
  Au     7.660798    4.123381   11.846248
  Au     6.591180    9.417626    7.306687
  Au     6.740068    4.566147    8.135757
  Au     6.009201    7.223286    8.695735
  Cr     8.201290    5.993262    9.974960

 Multiplicity           Mult            ....    5
 Number of Electrons    NEL             ....  214
 Basis Dimension        Dim             ....  445

ORBITAL ENERGIES
----------------
                 SPIN UP ORBITALS
  NO   OCC          E(Eh)            E(eV)
   0   1.0000    -214.477640     -5836.2333
   1   1.0000     -24.276209      -660.5892
   2   1.0000     -20.641005      -561.6703
   3   1.0000     -20.640282      -561.6506
   4   1.0000     -20.636196      -561.5394
   5   1.0000      -4.026036      -109.5540
   6   1.0000      -4.025940      -109.5514
   7   1.0000      -4.025086      -109.5282
   8   1.0000      -4.024945      -109.5243
   9   1.0000      -4.020299      -109.3979
  10   1.0000      -4.020286      -109.3976
  11   1.0000      -4.020129      -109.3933
  12   1.0000      -4.017208      -109.3138
  13   1.0000      -4.017095      -109.3107
  14   1.0000      -4.004470      -108.9672
  15   1.0000      -2.786313       -75.8194
  16   1.0000      -2.245834       -61.1122
  17   1.0000      -2.245255       -61.0965
  18   1.0000      -2.242288       -61.0158
  19   1.0000      -2.239513       -60.9402
  20   1.0000      -2.239384       -60.9367
  21   1.0000      -2.238989       -60.9260
  22   1.0000      -2.238384       -60.9095
  23   1.0000      -2.236971       -60.8711
  24   1.0000      -2.236875       -60.8685
  25   1.0000      -2.236105       -60.8475
  26   1.0000      -2.235944       -60.8431
  27   1.0000      -2.234865       -60.8138
  28   1.0000      -2.234741       -60.8104
  29   1.0000      -2.234536       -60.8048
  30   1.0000      -2.234532       -60.8047
  31   1.0000      -2.234250       -60.7970
  32   1.0000      -2.233460       -60.7755
  33   1.0000      -2.233315       -60.7716
  34   1.0000      -2.232474       -60.7487
  35   1.0000      -2.232290       -60.7437
  36   1.0000      -2.230949       -60.7072
  37   1.0000      -2.229886       -60.6783
  38   1.0000      -2.229523       -60.6684
  39   1.0000      -2.229480       -60.6672
  40   1.0000      -2.228840       -60.6498
  41   1.0000      -2.226180       -60.5774
  42   1.0000      -2.225787       -60.5668
  43   1.0000      -2.223249       -60.4977
  44   1.0000      -2.217944       -60.3533
  45   1.0000      -2.210706       -60.1564
  46   1.0000      -1.778446       -48.3940
  47   1.0000      -1.778063       -48.3835
  48   1.0000      -1.772883       -48.2426
  49   1.0000      -0.409207       -11.1351
  50   1.0000      -0.378535       -10.3005
  51   1.0000      -0.377992       -10.2857
  52   1.0000      -0.364633        -9.9222
  53   1.0000      -0.359861        -9.7923
  54   1.0000      -0.349904        -9.5214
  55   1.0000      -0.348086        -9.4719
  56   1.0000      -0.347831        -9.4650
  57   1.0000      -0.337275        -9.1777
  58   1.0000      -0.337092        -9.1728
  59   1.0000      -0.332817        -9.0564
  60   1.0000      -0.331173        -9.0117
  61   1.0000      -0.330206        -8.9854
  62   1.0000      -0.324083        -8.8188
  63   1.0000      -0.323549        -8.8042
  64   1.0000      -0.320385        -8.7181
  65   1.0000      -0.318323        -8.6620
  66   1.0000      -0.315193        -8.5768
  67   1.0000      -0.313211        -8.5229
  68   1.0000      -0.307911        -8.3787
  69   1.0000      -0.305633        -8.3167
  70   1.0000      -0.303133        -8.2487
  71   1.0000      -0.299269        -8.1435
  72   1.0000      -0.298245        -8.1157
  73   1.0000      -0.294882        -8.0241
  74   1.0000      -0.292582        -7.9616
  75   1.0000      -0.291447        -7.9307
  76   1.0000      -0.287046        -7.8109
  77   1.0000      -0.285579        -7.7710
  78   1.0000      -0.279537        -7.6066
  79   1.0000      -0.276995        -7.5374
  80   1.0000      -0.274855        -7.4792
  81   1.0000      -0.274445        -7.4680
  82   1.0000      -0.273219        -7.4347
  83   1.0000      -0.271961        -7.4004
  84   1.0000      -0.271167        -7.3788
  85   1.0000      -0.266407        -7.2493
  86   1.0000      -0.264990        -7.2108
  87   1.0000      -0.261335        -7.1113
  88   1.0000      -0.260470        -7.0878
  89   1.0000      -0.258458        -7.0330
  90   1.0000      -0.255268        -6.9462
  91   1.0000      -0.252081        -6.8595
  92   1.0000      -0.250437        -6.8147
  93   1.0000      -0.250297        -6.8109
  94   1.0000      -0.249509        -6.7895
  95   1.0000      -0.248512        -6.7624
  96   1.0000      -0.246599        -6.7103
  97   1.0000      -0.245761        -6.6875
  98   1.0000      -0.244183        -6.6446
  99   1.0000      -0.240950        -6.5566
 100   1.0000      -0.234225        -6.3736
 101   1.0000      -0.228885        -6.2283
 102   1.0000      -0.228245        -6.2109
 103   1.0000      -0.222563        -6.0562
 104   1.0000      -0.208284        -5.6677
 105   1.0000      -0.201569        -5.4850
 106   1.0000      -0.200036        -5.4433
 107   1.0000      -0.191277        -5.2049
 108   1.0000      -0.186620        -5.0782
 109   0.0000      -0.162917        -4.4332
 110   0.0000      -0.144182        -3.9234
 111   0.0000      -0.141969        -3.8632
 112   0.0000      -0.136212        -3.7065
 113   0.0000      -0.112660        -3.0656

                 SPIN DOWN ORBITALS
  NO   OCC          E(Eh)            E(eV)
   0   1.0000    -214.477180     -5836.2208
   1   1.0000     -24.226653      -659.2408
   2   1.0000     -20.604851      -560.6865
   3   1.0000     -20.604298      -560.6714
   4   1.0000     -20.594759      -560.4119
   5   1.0000      -4.025110      -109.5288
   6   1.0000      -4.025018      -109.5263
   7   1.0000      -4.024102      -109.5014
   8   1.0000      -4.023960      -109.4975
   9   1.0000      -4.019381      -109.3729
  10   1.0000      -4.019366      -109.3725
  11   1.0000      -4.019228      -109.3687
  12   1.0000      -4.016608      -109.2974
  13   1.0000      -4.016493      -109.2943
  14   1.0000      -4.004430      -108.9661
  15   1.0000      -2.651619       -72.1542
  16   1.0000      -2.244596       -61.0786
  17   1.0000      -2.243981       -61.0618
  18   1.0000      -2.241041       -60.9818
  19   1.0000      -2.238418       -60.9104
  20   1.0000      -2.238218       -60.9050
  21   1.0000      -2.237775       -60.8929
  22   1.0000      -2.237249       -60.8786
  23   1.0000      -2.236014       -60.8450
  24   1.0000      -2.235780       -60.8387
  25   1.0000      -2.235035       -60.8184
  26   1.0000      -2.234926       -60.8154
  27   1.0000      -2.234010       -60.7905
  28   1.0000      -2.233946       -60.7888
  29   1.0000      -2.233679       -60.7815
  30   1.0000      -2.233625       -60.7800
  31   1.0000      -2.233157       -60.7673
  32   1.0000      -2.232752       -60.7563
  33   1.0000      -2.232664       -60.7539
  34   1.0000      -2.231456       -60.7210
  35   1.0000      -2.231417       -60.7200
  36   1.0000      -2.230216       -60.6873
  37   1.0000      -2.229305       -60.6625
  38   1.0000      -2.228631       -60.6441
  39   1.0000      -2.228598       -60.6432
  40   1.0000      -2.228330       -60.6359
  41   1.0000      -2.225524       -60.5596
  42   1.0000      -2.225136       -60.5490
  43   1.0000      -2.223204       -60.4965
  44   1.0000      -2.218101       -60.3576
  45   1.0000      -2.210437       -60.1490
  46   1.0000      -1.651412       -44.9372
  47   1.0000      -1.650728       -44.9186
  48   1.0000      -1.628587       -44.3161
  49   1.0000      -0.402271       -10.9463
  50   1.0000      -0.376237       -10.2379
  51   1.0000      -0.375072       -10.2062
  52   1.0000      -0.360587        -9.8121
  53   1.0000      -0.356743        -9.7075
  54   1.0000      -0.346629        -9.4323
  55   1.0000      -0.345216        -9.3938
  56   1.0000      -0.341953        -9.3050
  57   1.0000      -0.335979        -9.1425
  58   1.0000      -0.335188        -9.1209
  59   1.0000      -0.332152        -9.0383
  60   1.0000      -0.330069        -8.9816
  61   1.0000      -0.329130        -8.9561
  62   1.0000      -0.323257        -8.7963
  63   1.0000      -0.321676        -8.7533
  64   1.0000      -0.316709        -8.6181
  65   1.0000      -0.316309        -8.6072
  66   1.0000      -0.313139        -8.5210
  67   1.0000      -0.311693        -8.4816
  68   1.0000      -0.306700        -8.3457
  69   1.0000      -0.303338        -8.2542
  70   1.0000      -0.301442        -8.2026
  71   1.0000      -0.297534        -8.0963
  72   1.0000      -0.294729        -8.0200
  73   1.0000      -0.292781        -7.9670
  74   1.0000      -0.289762        -7.8848
  75   1.0000      -0.289407        -7.8752
  76   1.0000      -0.284801        -7.7498
  77   1.0000      -0.284470        -7.7408
  78   1.0000      -0.278077        -7.5668
  79   1.0000      -0.275906        -7.5078
  80   1.0000      -0.274202        -7.4614
  81   1.0000      -0.273280        -7.4363
  82   1.0000      -0.272064        -7.4032
  83   1.0000      -0.271334        -7.3834
  84   1.0000      -0.270094        -7.3496
  85   1.0000      -0.265861        -7.2345
  86   1.0000      -0.264949        -7.2096
  87   1.0000      -0.260581        -7.0908
  88   1.0000      -0.260037        -7.0760
  89   1.0000      -0.257735        -7.0133
  90   1.0000      -0.254166        -6.9162
  91   1.0000      -0.251428        -6.8417
  92   1.0000      -0.249469        -6.7884
  93   1.0000      -0.248904        -6.7730
  94   1.0000      -0.248757        -6.7690
  95   1.0000      -0.247985        -6.7480
  96   1.0000      -0.245759        -6.6875
  97   1.0000      -0.245069        -6.6687
  98   1.0000      -0.242582        -6.6010
  99   1.0000      -0.240781        -6.5520
 100   1.0000      -0.233805        -6.3622
 101   1.0000      -0.227294        -6.1850
 102   1.0000      -0.225447        -6.1347
 103   1.0000      -0.216115        -5.8808
 104   1.0000      -0.195113        -5.3093
 105   0.0000      -0.152967        -4.1624
 106   0.0000      -0.152150        -4.1402
 107   0.0000      -0.142186        -3.8691
 108   0.0000      -0.107299        -2.9197
 109   0.0000      -0.107144        -2.9155

MULLIKEN ATOMIC CHARGES AND SPIN POPULATIONS
--------------------------------------------
   0 Au:    0.155798    0.036349
   1 Au:    0.164277    0.059680
   2 Au:    0.317769   -0.056723
   3 Au:   -0.046899   -0.039445
   4 Au:    0.418521    0.034658
   5 Au:    0.418350    0.034792
   6 Au:    0.317063   -0.057036
   7 Au:    0.306750    0.088631
   8 Au:    0.155356    0.036450
   9 Au:   -0.048050   -0.038641
  10 Cr:   -2.158935    3.901284
Sum of atomic charges         :   -0.0000000

LOEWDIN ATOMIC CHARGES AND SPIN POPULATIONS
-------------------------------------------
   0 Au:    0.088082    0.037687
   1 Au:    0.064600    0.046835
   2 Au:    0.096285   -0.026776
   3 Au:   -0.008875    0.026886
   4 Au:    0.124343    0.014308
   5 Au:    0.124469    0.014274
   6 Au:    0.096293   -0.026934
   7 Au:    0.105700    0.055381
   8 Au:    0.088423    0.037883
   9 Au:   -0.008609    0.027418
  10 Cr:   -0.770711    3.793042

  Mayer bond orders larger than 0.100000
B(  0-Au,  1-Au) :   0.3267 B(  0-Au,  3-Au) :   0.2568 B(  0-Au,  5-Au) :   0.1700
B(  0-Au,  8-Au) :   0.3553 B(  0-Au, 10-Cr) :   0.4501 B(  1-Au,  2-Au) :   0.2304
B(  1-Au,  6-Au) :   0.2320 B(  1-Au,  8-Au) :   0.3268 B(  1-Au, 10-Cr) :   0.4048
B(  2-Au,  5-Au) :   0.2774 B(  2-Au,  6-Au) :   0.2192 B(  2-Au, 10-Cr) :   0.6857
B(  3-Au,  5-Au) :   0.3664 B(  3-Au,  7-Au) :   0.5176 B(  3-Au,  9-Au) :   0.2271
B(  3-Au, 10-Cr) :   0.5839 B(  4-Au,  6-Au) :   0.2779 B(  4-Au,  8-Au) :   0.1693
B(  4-Au,  9-Au) :   0.3676 B(  4-Au, 10-Cr) :   0.6054 B(  5-Au, 10-Cr) :   0.6051
B(  6-Au, 10-Cr) :   0.6834 B(  7-Au,  9-Au) :   0.5179 B(  7-Au, 10-Cr) :   0.1458
B(  8-Au,  9-Au) :   0.2556 B(  8-Au, 10-Cr) :   0.4515 B(  9-Au, 10-Cr) :   0.5848

FINAL SINGLE POINT ENERGY     -2402.498198916817

DIPOLE MOMENT
-------------
                                X             Y             Z
Electronic contribution:     -4.92277      -2.66922     -25.91277
Nuclear contribution   :      4.94295       2.51354      25.79589
                        -----------------------------------------
Total Dipole Moment    :      0.02018      -0.15569      -0.11687
                        -----------------------------------------
Magnitude (a.u.)       :      0.19572
Magnitude (Debye)      :      0.49747

Rotational constants in cm-1:     0.002208     0.001491     0.001173
Rotational constants in MHz :    66.180446    44.700447    35.173789

                             ****ORCA TERMINATED NORMALLY****
TOTAL RUN TIME: 0 days 5 hours 16 minutes 4 seconds 376 msec
