                         Program Version 5.0.3 -  RELEASE  -
|  1> !RI-B2PLYP def2-TZVP def2-TZVP/C
|  2> !RIJCOSX VERYSLOWCONV
|  3>
|  4> %scf
|  5>   AutoTRAHIter 200
|  6>   maxiter 400
|  7> end
|  8>
|  9>
| 10> %pal nprocs 6 end
| 11>
| 12> *xyzfile 0 6 pbe.xyz
| 13>
| 14> $new_job
| 15>
| 16> !RI-B2PLYP def2-TZVP def2-TZVP/C
| 17> !RIJCOSX VERYSLOWCONV
| 18>
| 19> %scf
| 20>   AutoTRAHIter 200
| 21>   maxiter 400
| 22> end
| 23>
| 24>
| 25> %pal nprocs 6 end
| 26>
| 27> *xyzfile 0 4 pbe.xyz
| 28>
| 29>
| 30>
| 31>
| 32>
| 33>                          ****END OF INPUT****
 Total Charge           Charge          ....    0
 Multiplicity           Mult            ....    6
 Number of Electrons    NEL             ....  253
MP2 TOTAL ENERGY:    -2777.850035544 Eh
FINAL SINGLE POINT ENERGY     -2777.850035543633

CARTESIAN COORDINATES (ANGSTROEM)
---------------------------------
  Au    11.119184   11.817586    8.075427
  Au     9.449470   10.321879    9.774380
  Au    11.648433    9.050670    8.316206
  Au    10.656337   10.086984    5.887123
  Au    10.378977    6.771975    8.829853
  Au     8.808373    8.410803    4.966861
  Au     8.447849   11.369077    7.314056
  Au     8.016954    8.073991    9.993337
  Au     8.158925    5.301611    9.429337
  Au     6.913567    6.948084    7.712689
  Au     6.388810    7.148901    5.087356
  Au     6.660036    9.495621    6.647109
  Mn     9.056088    8.742909    7.606170

 Multiplicity           Mult            ....    4
 Number of Electrons    NEL             ....  253
 Basis Dimension        Dim             ....  525

ORBITAL ENERGIES
----------------
                 SPIN UP ORBITALS
  NO   OCC          E(Eh)            E(eV)
   0   1.0000    -237.620777     -6465.9901
   1   1.0000     -28.124757      -765.3135
   2   1.0000     -24.042869      -654.2397
   3   1.0000     -24.042260      -654.2232
   4   1.0000     -24.041943      -654.2145
   5   1.0000      -4.404038      -119.8400
   6   1.0000      -4.401818      -119.7796
   7   1.0000      -4.401768      -119.7782
   8   1.0000      -4.395866      -119.6176
   9   1.0000      -4.395743      -119.6142
  10   1.0000      -4.395675      -119.6124
  11   1.0000      -4.395599      -119.6103
  12   1.0000      -4.394190      -119.5720
  13   1.0000      -4.394032      -119.5677
  14   1.0000      -4.386844      -119.3721
  15   1.0000      -4.386777      -119.3703
  16   1.0000      -4.386551      -119.3641
  17   1.0000      -3.601854       -98.0114
  18   1.0000      -2.525899       -68.7332
  19   1.0000      -2.523589       -68.6704
  20   1.0000      -2.523281       -68.6620
  21   1.0000      -2.523185       -68.6594
  22   1.0000      -2.520086       -68.5750
  23   1.0000      -2.519871       -68.5692
  24   1.0000      -2.519207       -68.5511
  25   1.0000      -2.519109       -68.5484
  26   1.0000      -2.516933       -68.4892
  27   1.0000      -2.516583       -68.4797
  28   1.0000      -2.515744       -68.4569
  29   1.0000      -2.515346       -68.4460
  30   1.0000      -2.515142       -68.4405
  31   1.0000      -2.514270       -68.4168
  32   1.0000      -2.514240       -68.4159
  33   1.0000      -2.514161       -68.4138
  34   1.0000      -2.513535       -68.3968
  35   1.0000      -2.512946       -68.3807
  36   1.0000      -2.512182       -68.3600
  37   1.0000      -2.511145       -68.3317
  38   1.0000      -2.510408       -68.3117
  39   1.0000      -2.509815       -68.2955
  40   1.0000      -2.508438       -68.2581
  41   1.0000      -2.508193       -68.2514
  42   1.0000      -2.508037       -68.2471
  43   1.0000      -2.507649       -68.2366
  44   1.0000      -2.506263       -68.1989
  45   1.0000      -2.505323       -68.1733
  46   1.0000      -2.504757       -68.1579
  47   1.0000      -2.503810       -68.1321
  48   1.0000      -2.503052       -68.1115
  49   1.0000      -2.502868       -68.1065
  50   1.0000      -2.502667       -68.1010
  51   1.0000      -2.502210       -68.0886
  52   1.0000      -2.501276       -68.0632
  53   1.0000      -2.501194       -68.0610
  54   1.0000      -2.404016       -65.4166
  55   1.0000      -2.402874       -65.3855
  56   1.0000      -2.401808       -65.3565
  57   1.0000      -0.514813       -14.0088
  58   1.0000      -0.514249       -13.9934
  59   1.0000      -0.510476       -13.8908
  60   1.0000      -0.507311       -13.8046
  61   1.0000      -0.504087       -13.7169
  62   1.0000      -0.486010       -13.2250
  63   1.0000      -0.477067       -12.9816
  64   1.0000      -0.461571       -12.5600
  65   1.0000      -0.458549       -12.4778
  66   1.0000      -0.457471       -12.4484
  67   1.0000      -0.452212       -12.3053
  68   1.0000      -0.449158       -12.2222
  69   1.0000      -0.446508       -12.1501
  70   1.0000      -0.444816       -12.1041
  71   1.0000      -0.443508       -12.0685
  72   1.0000      -0.442022       -12.0280
  73   1.0000      -0.441366       -12.0102
  74   1.0000      -0.437052       -11.8928
  75   1.0000      -0.433718       -11.8021
  76   1.0000      -0.431450       -11.7404
  77   1.0000      -0.426202       -11.5976
  78   1.0000      -0.420079       -11.4309
  79   1.0000      -0.419406       -11.4126
  80   1.0000      -0.415252       -11.2996
  81   1.0000      -0.414984       -11.2923
  82   1.0000      -0.409282       -11.1371
  83   1.0000      -0.406767       -11.0687
  84   1.0000      -0.404422       -11.0049
  85   1.0000      -0.404064       -10.9951
  86   1.0000      -0.403043       -10.9674
  87   1.0000      -0.401202       -10.9173
  88   1.0000      -0.398815       -10.8523
  89   1.0000      -0.395033       -10.7494
  90   1.0000      -0.393020       -10.6946
  91   1.0000      -0.390314       -10.6210
  92   1.0000      -0.389411       -10.5964
  93   1.0000      -0.382550       -10.4097
  94   1.0000      -0.381114       -10.3706
  95   1.0000      -0.377087       -10.2610
  96   1.0000      -0.373545       -10.1647
  97   1.0000      -0.372877       -10.1465
  98   1.0000      -0.371307       -10.1038
  99   1.0000      -0.369183       -10.0460
 100   1.0000      -0.367978       -10.0132
 101   1.0000      -0.367730       -10.0064
 102   1.0000      -0.365819        -9.9544
 103   1.0000      -0.364884        -9.9290
 104   1.0000      -0.364196        -9.9103
 105   1.0000      -0.361433        -9.8351
 106   1.0000      -0.361337        -9.8325
 107   1.0000      -0.360557        -9.8113
 108   1.0000      -0.359628        -9.7860
 109   1.0000      -0.354697        -9.6518
 110   1.0000      -0.354168        -9.6374
 111   1.0000      -0.353935        -9.6311
 112   1.0000      -0.352441        -9.5904
 113   1.0000      -0.349485        -9.5100
 114   1.0000      -0.347775        -9.4634
 115   1.0000      -0.346037        -9.4161
 116   1.0000      -0.345481        -9.4010
 117   1.0000      -0.338674        -9.2158
 118   1.0000      -0.336405        -9.1541
 119   1.0000      -0.332283        -9.0419
 120   1.0000      -0.326940        -8.8965
 121   1.0000      -0.320802        -8.7295
 122   1.0000      -0.318449        -8.6654
 123   1.0000      -0.317068        -8.6279
 124   1.0000      -0.313011        -8.5175
 125   1.0000      -0.252046        -6.8585
 126   1.0000      -0.234545        -6.3823
 127   1.0000      -0.230952        -6.2845
 128   0.0000      -0.116494        -3.1700
 129   0.0000      -0.105341        -2.8665
 130   0.0000      -0.078202        -2.1280
 131   0.0000      -0.066674        -1.8143
 132   0.0000      -0.065514        -1.7827

                 SPIN DOWN ORBITALS
  NO   OCC          E(Eh)            E(eV)
   0   1.0000    -237.618627     -6465.9316
   1   1.0000     -28.024201      -762.5773
   2   1.0000     -23.950483      -651.7258
   3   1.0000     -23.949959      -651.7115
   4   1.0000     -23.949618      -651.7022
   5   1.0000      -4.404271      -119.8463
   6   1.0000      -4.402581      -119.8003
   7   1.0000      -4.402528      -119.7989
   8   1.0000      -4.396314      -119.6298
   9   1.0000      -4.396188      -119.6264
  10   1.0000      -4.395447      -119.6062
  11   1.0000      -4.395361      -119.6039
  12   1.0000      -4.394280      -119.5744
  13   1.0000      -4.394115      -119.5700
  14   1.0000      -4.388418      -119.4149
  15   1.0000      -4.388358      -119.4133
  16   1.0000      -4.386738      -119.3692
  17   1.0000      -3.319130       -90.3181
  18   1.0000      -2.526646       -68.7535
  19   1.0000      -2.523486       -68.6676
  20   1.0000      -2.522349       -68.6366
  21   1.0000      -2.522295       -68.6351
  22   1.0000      -2.520506       -68.5865
  23   1.0000      -2.519390       -68.5561
  24   1.0000      -2.518101       -68.5210
  25   1.0000      -2.517854       -68.5143
  26   1.0000      -2.516889       -68.4880
  27   1.0000      -2.516313       -68.4724
  28   1.0000      -2.515756       -68.4572
  29   1.0000      -2.515014       -68.4370
  30   1.0000      -2.514027       -68.4102
  31   1.0000      -2.513799       -68.4039
  32   1.0000      -2.513177       -68.3870
  33   1.0000      -2.512962       -68.3812
  34   1.0000      -2.512754       -68.3755
  35   1.0000      -2.512687       -68.3737
  36   1.0000      -2.511104       -68.3306
  37   1.0000      -2.511017       -68.3282
  38   1.0000      -2.510850       -68.3237
  39   1.0000      -2.509944       -68.2991
  40   1.0000      -2.508930       -68.2715
  41   1.0000      -2.508221       -68.2522
  42   1.0000      -2.507764       -68.2397
  43   1.0000      -2.507687       -68.2376
  44   1.0000      -2.507490       -68.2323
  45   1.0000      -2.507064       -68.2207
  46   1.0000      -2.506584       -68.2076
  47   1.0000      -2.504884       -68.1614
  48   1.0000      -2.504705       -68.1565
  49   1.0000      -2.504164       -68.1418
  50   1.0000      -2.503030       -68.1109
  51   1.0000      -2.502302       -68.0911
  52   1.0000      -2.501987       -68.0825
  53   1.0000      -2.501903       -68.0802
  54   1.0000      -2.079649       -56.5901
  55   1.0000      -2.079564       -56.5878
  56   1.0000      -2.079056       -56.5740
  57   1.0000      -0.492232       -13.3943
  58   1.0000      -0.480176       -13.0662
  59   1.0000      -0.470793       -12.8109
  60   1.0000      -0.468060       -12.7366
  61   1.0000      -0.459685       -12.5087
  62   1.0000      -0.457615       -12.4523
  63   1.0000      -0.455712       -12.4006
  64   1.0000      -0.453492       -12.3402
  65   1.0000      -0.449873       -12.2417
  66   1.0000      -0.449057       -12.2195
  67   1.0000      -0.447101       -12.1662
  68   1.0000      -0.444901       -12.1064
  69   1.0000      -0.443089       -12.0571
  70   1.0000      -0.438894       -11.9429
  71   1.0000      -0.433901       -11.8071
  72   1.0000      -0.433518       -11.7966
  73   1.0000      -0.430762       -11.7216
  74   1.0000      -0.427367       -11.6292
  75   1.0000      -0.422226       -11.4893
  76   1.0000      -0.421841       -11.4789
  77   1.0000      -0.414298       -11.2736
  78   1.0000      -0.414148       -11.2695
  79   1.0000      -0.411309       -11.1923
  80   1.0000      -0.410503       -11.1704
  81   1.0000      -0.408984       -11.1290
  82   1.0000      -0.404849       -11.0165
  83   1.0000      -0.403429       -10.9779
  84   1.0000      -0.397899       -10.8274
  85   1.0000      -0.397045       -10.8041
  86   1.0000      -0.395646       -10.7661
  87   1.0000      -0.392545       -10.6817
  88   1.0000      -0.388533       -10.5725
  89   1.0000      -0.387453       -10.5431
  90   1.0000      -0.385476       -10.4893
  91   1.0000      -0.383197       -10.4273
  92   1.0000      -0.380445       -10.3524
  93   1.0000      -0.376945       -10.2572
  94   1.0000      -0.376506       -10.2453
  95   1.0000      -0.374268       -10.1844
  96   1.0000      -0.369793       -10.0626
  97   1.0000      -0.368392       -10.0245
  98   1.0000      -0.368113       -10.0169
  99   1.0000      -0.367589       -10.0026
 100   1.0000      -0.364809        -9.9270
 101   1.0000      -0.364504        -9.9187
 102   1.0000      -0.363322        -9.8865
 103   1.0000      -0.361589        -9.8393
 104   1.0000      -0.359615        -9.7856
 105   1.0000      -0.356253        -9.6941
 106   1.0000      -0.354937        -9.6583
 107   1.0000      -0.354005        -9.6330
 108   1.0000      -0.352704        -9.5976
 109   1.0000      -0.350212        -9.5297
 110   1.0000      -0.348908        -9.4943
 111   1.0000      -0.347066        -9.4441
 112   1.0000      -0.342198        -9.3117
 113   1.0000      -0.342145        -9.3102
 114   1.0000      -0.335043        -9.1170
 115   1.0000      -0.330664        -8.9978
 116   1.0000      -0.328339        -8.9346
 117   1.0000      -0.327421        -8.9096
 118   1.0000      -0.323050        -8.7906
 119   1.0000      -0.318907        -8.6779
 120   1.0000      -0.278470        -7.5776
 121   1.0000      -0.248312        -6.7569
 122   1.0000      -0.238402        -6.4873
 123   1.0000      -0.224976        -6.1219
 124   1.0000      -0.196988        -5.3603
 125   0.0000      -0.086751        -2.3606
 126   0.0000      -0.072395        -1.9700
 127   0.0000      -0.065512        -1.7827
 128   0.0000      -0.053353        -1.4518
 129   0.0000      -0.046298        -1.2598

MULLIKEN ATOMIC CHARGES AND SPIN POPULATIONS
--------------------------------------------
   0 Au:    0.251681    0.022240
   1 Au:    0.080827   -0.179367
   2 Au:    0.160494   -0.078993
   3 Au:    0.159474   -0.079147
   4 Au:    0.080429   -0.287099
   5 Au:    0.082823   -0.287301
   6 Au:    0.081585   -0.179548
   7 Au:    0.213682   -0.175537
   8 Au:    0.294379   -0.106395
   9 Au:   -0.235187   -0.018395
  10 Au:    0.295237   -0.105636
  11 Au:    0.212873   -0.176188
  12 Mn:   -1.678298    4.651365
Sum of atomic charges         :    0.0000000

LOEWDIN ATOMIC CHARGES AND SPIN POPULATIONS
-------------------------------------------
   0 Au:    0.056623   -0.031418
   1 Au:    0.006341   -0.141049
   2 Au:    0.000572   -0.089026
   3 Au:    0.000531   -0.089301
   4 Au:    0.020808   -0.174595
   5 Au:    0.021328   -0.174883
   6 Au:    0.006405   -0.141496
   7 Au:    0.019907   -0.163316
   8 Au:    0.095952   -0.126005
   9 Au:   -0.098210   -0.048800
  10 Au:    0.096355   -0.125343
  11 Au:    0.019502   -0.163709
  12 Mn:   -0.246115    4.468941

  Mayer bond orders larger than 0.100000
B(  0-Au,  1-Au) :   0.2620 B(  0-Au,  2-Au) :   0.2184 B(  0-Au,  3-Au) :   0.2188
B(  0-Au,  6-Au) :   0.2619 B(  1-Au,  2-Au) :   0.1248 B(  1-Au,  6-Au) :   0.1681
B(  1-Au,  7-Au) :   0.3155 B(  1-Au, 12-Mn) :   0.4281 B(  2-Au,  3-Au) :   0.1681
B(  2-Au,  4-Au) :   0.3339 B(  2-Au, 12-Mn) :   0.4838 B(  3-Au,  5-Au) :   0.3335
B(  3-Au,  6-Au) :   0.1261 B(  3-Au, 12-Mn) :   0.4846 B(  4-Au,  7-Au) :   0.1086
B(  4-Au,  8-Au) :   0.3509 B(  4-Au, 12-Mn) :   0.4703 B(  5-Au, 10-Au) :   0.3486
B(  5-Au, 11-Au) :   0.1094 B(  5-Au, 12-Mn) :   0.4684 B(  6-Au, 11-Au) :   0.3158
B(  6-Au, 12-Mn) :   0.4273 B(  7-Au,  8-Au) :   0.2044 B(  7-Au,  9-Au) :   0.2460
B(  7-Au, 12-Mn) :   0.4732 B(  8-Au,  9-Au) :   0.4168 B(  9-Au, 10-Au) :   0.4171
B(  9-Au, 11-Au) :   0.2458 B(  9-Au, 12-Mn) :   0.3032 B( 10-Au, 11-Au) :   0.2057
B( 11-Au, 12-Mn) :   0.4727

MP2 TOTAL ENERGY:    -2777.852486006 Eh
FINAL SINGLE POINT ENERGY     -2777.852486005592

DIPOLE MOMENT
-------------
                                X             Y             Z
Electronic contribution:     -6.31651      -0.39813       2.35320
Nuclear contribution   :      6.14300       0.35693      -2.30332
                        -----------------------------------------
Total Dipole Moment    :     -0.17351      -0.04120       0.04988
                        -----------------------------------------
Magnitude (a.u.)       :      0.18518
Magnitude (Debye)      :      0.47069

Rotational constants in cm-1:     0.001535     0.001171     0.000911
Rotational constants in MHz :    46.010758    35.107292    27.306238

                             ****ORCA TERMINATED NORMALLY****
TOTAL RUN TIME: 0 days 1 hours 13 minutes 35 seconds 549 msec
