                         Program Version 5.0.3 -  RELEASE  -
|  1> !PBE def2-TZVP VERYSLOWCONV
|  2> !KDIIS
|  3>
|  4> %scf
|  5>   AutoTRAHIter 200
|  6>   maxiter 400
|  7> end
|  8>
|  9>
| 10> %pal nprocs 6 end
| 11>
| 12> *xyzfile 0 6 pbe.xyz
| 13>
| 14> $new_job
| 15>
| 16> !PBE def2-TZVP VERYSLOWCONV
| 17> !KDIIS
| 18>
| 19> %scf
| 20>   AutoTRAHIter 200
| 21>   maxiter 400
| 22> end
| 23>
| 24>
| 25> %pal nprocs 6 end
| 26>
| 27> *xyzfile 0 4 pbe.xyz
| 28>
| 29>
| 30>
| 31>
| 32>
| 33>                          ****END OF INPUT****
 Total Charge           Charge          ....    0
 Multiplicity           Mult            ....    6
 Number of Electrons    NEL             ....  253
FINAL SINGLE POINT ENERGY     -2780.675130786337

CARTESIAN COORDINATES (ANGSTROEM)
---------------------------------
  Au    11.119184   11.817586    8.075427
  Au     9.449470   10.321879    9.774380
  Au    11.648433    9.050670    8.316206
  Au    10.656337   10.086984    5.887123
  Au    10.378977    6.771975    8.829853
  Au     8.808373    8.410803    4.966861
  Au     8.447849   11.369077    7.314056
  Au     8.016954    8.073991    9.993337
  Au     8.158925    5.301611    9.429337
  Au     6.913567    6.948084    7.712689
  Au     6.388810    7.148901    5.087356
  Au     6.660036    9.495621    6.647109
  Mn     9.056088    8.742909    7.606170

 Multiplicity           Mult            ....    4
 Number of Electrons    NEL             ....  253
 Basis Dimension        Dim             ....  525

ORBITAL ENERGIES
----------------
                 SPIN UP ORBITALS
  NO   OCC          E(Eh)            E(eV)
   0   1.0000    -234.202124     -6372.9638
   1   1.0000     -26.898234      -731.9381
   2   1.0000     -23.047632      -627.1580
   3   1.0000     -23.046804      -627.1354
   4   1.0000     -23.046101      -627.1163
   5   1.0000      -4.032734      -109.7363
   6   1.0000      -4.028285      -109.6152
   7   1.0000      -4.028225      -109.6136
   8   1.0000      -4.023915      -109.4963
   9   1.0000      -4.023820      -109.4937
  10   1.0000      -4.023729      -109.4912
  11   1.0000      -4.023619      -109.4882
  12   1.0000      -4.022585      -109.4601
  13   1.0000      -4.022582      -109.4600
  14   1.0000      -4.017263      -109.3153
  15   1.0000      -4.016300      -109.2891
  16   1.0000      -4.016228      -109.2871
  17   1.0000      -3.104852       -84.4873
  18   1.0000      -2.251508       -61.2667
  19   1.0000      -2.246448       -61.1289
  20   1.0000      -2.245391       -61.1002
  21   1.0000      -2.245323       -61.0984
  22   1.0000      -2.243180       -61.0400
  23   1.0000      -2.243056       -61.0367
  24   1.0000      -2.242863       -61.0314
  25   1.0000      -2.242860       -61.0313
  26   1.0000      -2.239662       -60.9443
  27   1.0000      -2.239417       -60.9376
  28   1.0000      -2.239157       -60.9305
  29   1.0000      -2.238964       -60.9253
  30   1.0000      -2.238316       -60.9077
  31   1.0000      -2.238197       -60.9044
  32   1.0000      -2.238141       -60.9029
  33   1.0000      -2.237423       -60.8834
  34   1.0000      -2.237071       -60.8738
  35   1.0000      -2.236903       -60.8692
  36   1.0000      -2.235886       -60.8415
  37   1.0000      -2.235494       -60.8309
  38   1.0000      -2.235452       -60.8297
  39   1.0000      -2.233124       -60.7664
  40   1.0000      -2.231988       -60.7355
  41   1.0000      -2.231844       -60.7316
  42   1.0000      -2.231800       -60.7304
  43   1.0000      -2.231659       -60.7265
  44   1.0000      -2.230845       -60.7044
  45   1.0000      -2.230523       -60.6956
  46   1.0000      -2.229538       -60.6688
  47   1.0000      -2.229265       -60.6614
  48   1.0000      -2.229195       -60.6595
  49   1.0000      -2.229126       -60.6576
  50   1.0000      -2.228762       -60.6477
  51   1.0000      -2.228736       -60.6470
  52   1.0000      -2.225444       -60.5574
  53   1.0000      -2.225359       -60.5551
  54   1.0000      -2.008712       -54.6598
  55   1.0000      -2.007553       -54.6283
  56   1.0000      -2.005634       -54.5761
  57   1.0000      -0.417747       -11.3675
  58   1.0000      -0.388240       -10.5646
  59   1.0000      -0.377250       -10.2655
  60   1.0000      -0.375469       -10.2170
  61   1.0000      -0.365573        -9.9478
  62   1.0000      -0.363937        -9.9032
  63   1.0000      -0.361850        -9.8464
  64   1.0000      -0.360076        -9.7982
  65   1.0000      -0.349468        -9.5095
  66   1.0000      -0.347065        -9.4441
  67   1.0000      -0.346077        -9.4172
  68   1.0000      -0.343329        -9.3425
  69   1.0000      -0.341120        -9.2823
  70   1.0000      -0.336489        -9.1563
  71   1.0000      -0.335272        -9.1232
  72   1.0000      -0.335176        -9.1206
  73   1.0000      -0.332562        -9.0495
  74   1.0000      -0.330261        -8.9869
  75   1.0000      -0.326442        -8.8829
  76   1.0000      -0.319759        -8.7011
  77   1.0000      -0.318700        -8.6723
  78   1.0000      -0.316572        -8.6144
  79   1.0000      -0.312573        -8.5055
  80   1.0000      -0.311400        -8.4736
  81   1.0000      -0.310426        -8.4471
  82   1.0000      -0.306113        -8.3298
  83   1.0000      -0.303861        -8.2685
  84   1.0000      -0.299967        -8.1625
  85   1.0000      -0.299252        -8.1431
  86   1.0000      -0.296364        -8.0645
  87   1.0000      -0.296275        -8.0620
  88   1.0000      -0.292231        -7.9520
  89   1.0000      -0.291246        -7.9252
  90   1.0000      -0.290262        -7.8984
  91   1.0000      -0.288084        -7.8392
  92   1.0000      -0.287233        -7.8160
  93   1.0000      -0.282921        -7.6987
  94   1.0000      -0.280174        -7.6239
  95   1.0000      -0.276309        -7.5187
  96   1.0000      -0.274000        -7.4559
  97   1.0000      -0.273806        -7.4506
  98   1.0000      -0.272277        -7.4090
  99   1.0000      -0.270063        -7.3488
 100   1.0000      -0.269654        -7.3377
 101   1.0000      -0.269411        -7.3310
 102   1.0000      -0.267154        -7.2696
 103   1.0000      -0.266111        -7.2412
 104   1.0000      -0.264729        -7.2036
 105   1.0000      -0.263729        -7.1764
 106   1.0000      -0.260691        -7.0938
 107   1.0000      -0.260122        -7.0783
 108   1.0000      -0.258410        -7.0317
 109   1.0000      -0.256609        -6.9827
 110   1.0000      -0.255690        -6.9577
 111   1.0000      -0.254772        -6.9327
 112   1.0000      -0.252180        -6.8622
 113   1.0000      -0.250757        -6.8234
 114   1.0000      -0.249646        -6.7932
 115   1.0000      -0.248178        -6.7533
 116   1.0000      -0.247580        -6.7370
 117   1.0000      -0.243899        -6.6368
 118   1.0000      -0.243509        -6.6262
 119   1.0000      -0.240994        -6.5578
 120   1.0000      -0.238571        -6.4918
 121   1.0000      -0.236139        -6.4257
 122   1.0000      -0.233222        -6.3463
 123   1.0000      -0.229608        -6.2480
 124   1.0000      -0.228416        -6.2155
 125   1.0000      -0.223955        -6.0941
 126   1.0000      -0.211685        -5.7602
 127   1.0000      -0.210114        -5.7175
 128   0.0000      -0.177550        -4.8314
 129   0.0000      -0.170439        -4.6379
 130   0.0000      -0.143358        -3.9010
 131   0.0000      -0.132937        -3.6174
 132   0.0000      -0.129197        -3.5156

                 SPIN DOWN ORBITALS
  NO   OCC          E(Eh)            E(eV)
   0   1.0000    -234.201401     -6372.9441
   1   1.0000     -26.833948      -730.1888
   2   1.0000     -22.999188      -625.8397
   3   1.0000     -22.998468      -625.8201
   4   1.0000     -22.996393      -625.7637
   5   1.0000      -4.032295      -109.7243
   6   1.0000      -4.028456      -109.6199
   7   1.0000      -4.028393      -109.6182
   8   1.0000      -4.023802      -109.4932
   9   1.0000      -4.023705      -109.4906
  10   1.0000      -4.023572      -109.4870
  11   1.0000      -4.023458      -109.4839
  12   1.0000      -4.021895      -109.4413
  13   1.0000      -4.021893      -109.4413
  14   1.0000      -4.017691      -109.3269
  15   1.0000      -4.017329      -109.3171
  16   1.0000      -4.017262      -109.3153
  17   1.0000      -2.947292       -80.1999
  18   1.0000      -2.251377       -61.2631
  19   1.0000      -2.246286       -61.1245
  20   1.0000      -2.245358       -61.0993
  21   1.0000      -2.244947       -61.0881
  22   1.0000      -2.243074       -61.0372
  23   1.0000      -2.242677       -61.0264
  24   1.0000      -2.242535       -61.0225
  25   1.0000      -2.242393       -61.0186
  26   1.0000      -2.239463       -60.9389
  27   1.0000      -2.239300       -60.9345
  28   1.0000      -2.239053       -60.9277
  29   1.0000      -2.238275       -60.9066
  30   1.0000      -2.237675       -60.8902
  31   1.0000      -2.237316       -60.8805
  32   1.0000      -2.237296       -60.8799
  33   1.0000      -2.236928       -60.8699
  34   1.0000      -2.236730       -60.8645
  35   1.0000      -2.236657       -60.8625
  36   1.0000      -2.235693       -60.8363
  37   1.0000      -2.235580       -60.8332
  38   1.0000      -2.235292       -60.8254
  39   1.0000      -2.233385       -60.7735
  40   1.0000      -2.233204       -60.7686
  41   1.0000      -2.232871       -60.7595
  42   1.0000      -2.232091       -60.7383
  43   1.0000      -2.232002       -60.7359
  44   1.0000      -2.231095       -60.7112
  45   1.0000      -2.231065       -60.7104
  46   1.0000      -2.230555       -60.6965
  47   1.0000      -2.230485       -60.6946
  48   1.0000      -2.230267       -60.6887
  49   1.0000      -2.229278       -60.6617
  50   1.0000      -2.228390       -60.6376
  51   1.0000      -2.228363       -60.6368
  52   1.0000      -2.225992       -60.5723
  53   1.0000      -2.225909       -60.5701
  54   1.0000      -1.854670       -50.4681
  55   1.0000      -1.853941       -50.4483
  56   1.0000      -1.849317       -50.3225
  57   1.0000      -0.412585       -11.2270
  58   1.0000      -0.388331       -10.5670
  59   1.0000      -0.377187       -10.2638
  60   1.0000      -0.370104       -10.0710
  61   1.0000      -0.364010        -9.9052
  62   1.0000      -0.360524        -9.8104
  63   1.0000      -0.357415        -9.7258
  64   1.0000      -0.357168        -9.7190
  65   1.0000      -0.345897        -9.4123
  66   1.0000      -0.345254        -9.3948
  67   1.0000      -0.343343        -9.3428
  68   1.0000      -0.341890        -9.3033
  69   1.0000      -0.340243        -9.2585
  70   1.0000      -0.334332        -9.0976
  71   1.0000      -0.333880        -9.0853
  72   1.0000      -0.330751        -9.0002
  73   1.0000      -0.328686        -8.9440
  74   1.0000      -0.325930        -8.8690
  75   1.0000      -0.322700        -8.7811
  76   1.0000      -0.319966        -8.7067
  77   1.0000      -0.314199        -8.5498
  78   1.0000      -0.313022        -8.5178
  79   1.0000      -0.312798        -8.5117
  80   1.0000      -0.310751        -8.4560
  81   1.0000      -0.309228        -8.4145
  82   1.0000      -0.306783        -8.3480
  83   1.0000      -0.302776        -8.2390
  84   1.0000      -0.297448        -8.0940
  85   1.0000      -0.297295        -8.0898
  86   1.0000      -0.295534        -8.0419
  87   1.0000      -0.292169        -7.9503
  88   1.0000      -0.290444        -7.9034
  89   1.0000      -0.290078        -7.8934
  90   1.0000      -0.287649        -7.8273
  91   1.0000      -0.286290        -7.7903
  92   1.0000      -0.283767        -7.7217
  93   1.0000      -0.282070        -7.6755
  94   1.0000      -0.279568        -7.6074
  95   1.0000      -0.275997        -7.5103
  96   1.0000      -0.275137        -7.4869
  97   1.0000      -0.273248        -7.4355
  98   1.0000      -0.273236        -7.4351
  99   1.0000      -0.270661        -7.3651
 100   1.0000      -0.269893        -7.3442
 101   1.0000      -0.268242        -7.2992
 102   1.0000      -0.268140        -7.2964
 103   1.0000      -0.266281        -7.2459
 104   1.0000      -0.265077        -7.2131
 105   1.0000      -0.264179        -7.1887
 106   1.0000      -0.260413        -7.0862
 107   1.0000      -0.260273        -7.0824
 108   1.0000      -0.257504        -7.0070
 109   1.0000      -0.256038        -6.9671
 110   1.0000      -0.255853        -6.9621
 111   1.0000      -0.252744        -6.8775
 112   1.0000      -0.250681        -6.8214
 113   1.0000      -0.250595        -6.8190
 114   1.0000      -0.248760        -6.7691
 115   1.0000      -0.248455        -6.7608
 116   1.0000      -0.244083        -6.6418
 117   1.0000      -0.242076        -6.5872
 118   1.0000      -0.235963        -6.4209
 119   1.0000      -0.233664        -6.3583
 120   1.0000      -0.227959        -6.2031
 121   1.0000      -0.219290        -5.9672
 122   1.0000      -0.217817        -5.9271
 123   1.0000      -0.199865        -5.4386
 124   1.0000      -0.183541        -4.9944
 125   0.0000      -0.149360        -4.0643
 126   0.0000      -0.142181        -3.8689
 127   0.0000      -0.135477        -3.6865
 128   0.0000      -0.128280        -3.4907
 129   0.0000      -0.128029        -3.4838

MULLIKEN ATOMIC CHARGES AND SPIN POPULATIONS
--------------------------------------------
   0 Au:    0.301449   -0.005381
   1 Au:    0.104479   -0.099334
   2 Au:    0.183743   -0.056957
   3 Au:    0.183070   -0.056958
   4 Au:    0.106904   -0.135466
   5 Au:    0.109057   -0.135784
   6 Au:    0.105108   -0.099292
   7 Au:    0.220100   -0.114918
   8 Au:    0.315474   -0.086078
   9 Au:   -0.143852   -0.029308
  10 Au:    0.316223   -0.085261
  11 Au:    0.218723   -0.115024
  12 Mn:   -2.020479    4.019760
Sum of atomic charges         :   -0.0000000

LOEWDIN ATOMIC CHARGES AND SPIN POPULATIONS
-------------------------------------------
   0 Au:    0.043262   -0.040967
   1 Au:    0.034643   -0.084039
   2 Au:    0.031118   -0.062262
   3 Au:    0.030942   -0.062416
   4 Au:    0.054269   -0.086371
   5 Au:    0.054644   -0.086607
   6 Au:    0.034660   -0.084195
   7 Au:    0.043722   -0.105889
   8 Au:    0.083743   -0.106878
   9 Au:   -0.063757   -0.017949
  10 Au:    0.084084   -0.106166
  11 Au:    0.043239   -0.105944
  12 Mn:   -0.474570    3.949683

  Mayer bond orders larger than 0.100000
B(  0-Au,  1-Au) :   0.2877 B(  0-Au,  2-Au) :   0.2493 B(  0-Au,  3-Au) :   0.2495
B(  0-Au,  6-Au) :   0.2873 B(  1-Au,  2-Au) :   0.1696 B(  1-Au,  6-Au) :   0.1930
B(  1-Au,  7-Au) :   0.3495 B(  1-Au, 12-Mn) :   0.5017 B(  2-Au,  3-Au) :   0.2027
B(  2-Au,  4-Au) :   0.3645 B(  2-Au, 12-Mn) :   0.5203 B(  3-Au,  5-Au) :   0.3642
B(  3-Au,  6-Au) :   0.1710 B(  3-Au, 12-Mn) :   0.5206 B(  4-Au,  7-Au) :   0.1490
B(  4-Au,  8-Au) :   0.3856 B(  4-Au, 12-Mn) :   0.5647 B(  5-Au, 10-Au) :   0.3837
B(  5-Au, 11-Au) :   0.1498 B(  5-Au, 12-Mn) :   0.5632 B(  6-Au, 11-Au) :   0.3500
B(  6-Au, 12-Mn) :   0.5006 B(  7-Au,  8-Au) :   0.2356 B(  7-Au,  9-Au) :   0.2486
B(  7-Au, 12-Mn) :   0.5370 B(  8-Au,  9-Au) :   0.4511 B(  9-Au, 10-Au) :   0.4514
B(  9-Au, 11-Au) :   0.2479 B(  9-Au, 12-Mn) :   0.3342 B( 10-Au, 11-Au) :   0.2371
B( 11-Au, 12-Mn) :   0.5369

FINAL SINGLE POINT ENERGY     -2780.692899422294

DIPOLE MOMENT
-------------
                                X             Y             Z
Electronic contribution:     -6.25578      -0.39152       2.33194
Nuclear contribution   :      6.14300       0.35693      -2.30332
                        -----------------------------------------
Total Dipole Moment    :     -0.11278      -0.03459       0.02863
                        -----------------------------------------
Magnitude (a.u.)       :      0.12139
Magnitude (Debye)      :      0.30855

Rotational constants in cm-1:     0.001535     0.001171     0.000911
Rotational constants in MHz :    46.010758    35.107292    27.306238

                             ****ORCA TERMINATED NORMALLY****
TOTAL RUN TIME: 0 days 0 hours 6 minutes 26 seconds 581 msec
