                         Program Version 5.0.3 -  RELEASE  -
|  1> !R2SCAN def2-TZVP VERYSLOWCONV
|  2> !KDIIS
|  3> %scf
|  4>   AutoTRAHIter 200
|  5>   maxiter 400
|  6> end
|  7>
|  8> %pal nprocs 6 end
|  9>
| 10> *xyzfile 0 6 pbe.xyz
| 11>
| 12> $new_job
| 13>
| 14> !R2SCAN def2-TZVP VERYSLOWCONV
| 15> !KDIIS
| 16> %scf
| 17>   AutoTRAHIter 200
| 18>   maxiter 400
| 19> end
| 20>
| 21>
| 22> %pal nprocs 6 end
| 23>
| 24> *xyzfile 0 4 pbe.xyz
| 25>
| 26>
| 27>
| 28>
| 29>
| 30>                          ****END OF INPUT****
 Total Charge           Charge          ....    0
 Multiplicity           Mult            ....    6
 Number of Electrons    NEL             ....  253
FINAL SINGLE POINT ENERGY     -2781.125326299565

CARTESIAN COORDINATES (ANGSTROEM)
---------------------------------
  Au    11.119184   11.817586    8.075427
  Au     9.449470   10.321879    9.774380
  Au    11.648433    9.050670    8.316206
  Au    10.656337   10.086984    5.887123
  Au    10.378977    6.771975    8.829853
  Au     8.808373    8.410803    4.966861
  Au     8.447849   11.369077    7.314056
  Au     8.016954    8.073991    9.993337
  Au     8.158925    5.301611    9.429337
  Au     6.913567    6.948084    7.712689
  Au     6.388810    7.148901    5.087356
  Au     6.660036    9.495621    6.647109
  Mn     9.056088    8.742909    7.606170

 Multiplicity           Mult            ....    4
 Number of Electrons    NEL             ....  253
 Basis Dimension        Dim             ....  525

ORBITAL ENERGIES
----------------
                 SPIN UP ORBITALS
  NO   OCC          E(Eh)            E(eV)
   0   1.0000    -235.043279     -6395.8528
   1   1.0000     -27.223128      -740.7790
   2   1.0000     -23.270744      -633.2291
   3   1.0000     -23.269745      -633.2019
   4   1.0000     -23.269546      -633.1965
   5   1.0000      -4.124016      -112.2202
   6   1.0000      -4.119773      -112.1047
   7   1.0000      -4.119705      -112.1029
   8   1.0000      -4.115179      -111.9797
   9   1.0000      -4.115073      -111.9768
  10   1.0000      -4.114752      -111.9681
  11   1.0000      -4.114628      -111.9647
  12   1.0000      -4.113802      -111.9422
  13   1.0000      -4.113798      -111.9421
  14   1.0000      -4.107999      -111.7843
  15   1.0000      -4.107324      -111.7660
  16   1.0000      -4.107247      -111.7639
  17   1.0000      -3.242819       -88.2416
  18   1.0000      -2.315202       -62.9999
  19   1.0000      -2.310665       -62.8764
  20   1.0000      -2.309670       -62.8493
  21   1.0000      -2.309569       -62.8466
  22   1.0000      -2.307412       -62.7879
  23   1.0000      -2.307078       -62.7788
  24   1.0000      -2.307023       -62.7773
  25   1.0000      -2.306848       -62.7725
  26   1.0000      -2.303906       -62.6925
  27   1.0000      -2.303507       -62.6816
  28   1.0000      -2.303061       -62.6695
  29   1.0000      -2.302874       -62.6644
  30   1.0000      -2.302136       -62.6443
  31   1.0000      -2.302099       -62.6433
  32   1.0000      -2.302023       -62.6412
  33   1.0000      -2.301385       -62.6239
  34   1.0000      -2.301062       -62.6151
  35   1.0000      -2.300826       -62.6087
  36   1.0000      -2.300045       -62.5874
  37   1.0000      -2.299840       -62.5818
  38   1.0000      -2.299389       -62.5696
  39   1.0000      -2.297276       -62.5121
  40   1.0000      -2.295901       -62.4746
  41   1.0000      -2.295862       -62.4736
  42   1.0000      -2.295478       -62.4631
  43   1.0000      -2.295112       -62.4532
  44   1.0000      -2.294863       -62.4464
  45   1.0000      -2.293915       -62.4206
  46   1.0000      -2.293234       -62.4021
  47   1.0000      -2.293191       -62.4009
  48   1.0000      -2.292860       -62.3919
  49   1.0000      -2.292726       -62.3883
  50   1.0000      -2.292681       -62.3870
  51   1.0000      -2.292604       -62.3849
  52   1.0000      -2.289331       -62.2959
  53   1.0000      -2.289245       -62.2935
  54   1.0000      -2.100741       -57.1641
  55   1.0000      -2.099063       -57.1184
  56   1.0000      -2.097881       -57.0862
  57   1.0000      -0.423816       -11.5326
  58   1.0000      -0.394767       -10.7421
  59   1.0000      -0.385581       -10.4922
  60   1.0000      -0.385010       -10.4767
  61   1.0000      -0.375838       -10.2271
  62   1.0000      -0.373277       -10.1574
  63   1.0000      -0.371963       -10.1216
  64   1.0000      -0.371227       -10.1016
  65   1.0000      -0.362235        -9.8569
  66   1.0000      -0.357597        -9.7307
  67   1.0000      -0.356387        -9.6978
  68   1.0000      -0.353135        -9.6093
  69   1.0000      -0.351523        -9.5654
  70   1.0000      -0.346778        -9.4363
  71   1.0000      -0.346282        -9.4228
  72   1.0000      -0.345061        -9.3896
  73   1.0000      -0.341933        -9.3045
  74   1.0000      -0.339805        -9.2466
  75   1.0000      -0.337209        -9.1759
  76   1.0000      -0.329561        -8.9678
  77   1.0000      -0.329083        -8.9548
  78   1.0000      -0.326768        -8.8918
  79   1.0000      -0.321769        -8.7558
  80   1.0000      -0.321069        -8.7367
  81   1.0000      -0.319753        -8.7009
  82   1.0000      -0.314640        -8.5618
  83   1.0000      -0.314283        -8.5521
  84   1.0000      -0.310504        -8.4493
  85   1.0000      -0.309094        -8.4109
  86   1.0000      -0.306556        -8.3418
  87   1.0000      -0.305195        -8.3048
  88   1.0000      -0.301752        -8.2111
  89   1.0000      -0.300503        -8.1771
  90   1.0000      -0.300247        -8.1701
  91   1.0000      -0.297286        -8.0896
  92   1.0000      -0.296399        -8.0654
  93   1.0000      -0.291734        -7.9385
  94   1.0000      -0.289155        -7.8683
  95   1.0000      -0.286788        -7.8039
  96   1.0000      -0.283104        -7.7037
  97   1.0000      -0.282581        -7.6894
  98   1.0000      -0.280154        -7.6234
  99   1.0000      -0.279652        -7.6097
 100   1.0000      -0.278317        -7.5734
 101   1.0000      -0.278136        -7.5685
 102   1.0000      -0.275650        -7.5008
 103   1.0000      -0.275253        -7.4900
 104   1.0000      -0.272958        -7.4276
 105   1.0000      -0.271909        -7.3990
 106   1.0000      -0.271864        -7.3978
 107   1.0000      -0.269233        -7.3262
 108   1.0000      -0.268753        -7.3131
 109   1.0000      -0.267326        -7.2743
 110   1.0000      -0.265477        -7.2240
 111   1.0000      -0.263687        -7.1753
 112   1.0000      -0.260313        -7.0835
 113   1.0000      -0.259880        -7.0717
 114   1.0000      -0.257321        -7.0021
 115   1.0000      -0.256347        -6.9756
 116   1.0000      -0.255671        -6.9571
 117   1.0000      -0.255015        -6.9393
 118   1.0000      -0.251861        -6.8535
 119   1.0000      -0.251520        -6.8442
 120   1.0000      -0.250125        -6.8062
 121   1.0000      -0.247674        -6.7396
 122   1.0000      -0.240012        -6.5311
 123   1.0000      -0.239937        -6.5290
 124   1.0000      -0.236213        -6.4277
 125   1.0000      -0.226313        -6.1583
 126   1.0000      -0.213963        -5.8222
 127   1.0000      -0.213412        -5.8072
 128   0.0000      -0.177313        -4.8249
 129   0.0000      -0.167500        -4.5579
 130   0.0000      -0.138861        -3.7786
 131   0.0000      -0.128602        -3.4994
 132   0.0000      -0.124953        -3.4001

                 SPIN DOWN ORBITALS
  NO   OCC          E(Eh)            E(eV)
   0   1.0000    -235.042229     -6395.8242
   1   1.0000     -27.136543      -738.4229
   2   1.0000     -23.204488      -631.4262
   3   1.0000     -23.203822      -631.4081
   4   1.0000     -23.202397      -631.3693
   5   1.0000      -4.123856      -112.2158
   6   1.0000      -4.120195      -112.1162
   7   1.0000      -4.120123      -112.1142
   8   1.0000      -4.115301      -111.9830
   9   1.0000      -4.115192      -111.9801
  10   1.0000      -4.114752      -111.9681
  11   1.0000      -4.114622      -111.9646
  12   1.0000      -4.113260      -111.9275
  13   1.0000      -4.113252      -111.9273
  14   1.0000      -4.108653      -111.8021
  15   1.0000      -4.108585      -111.8003
  16   1.0000      -4.108431      -111.7961
  17   1.0000      -3.036260       -82.6208
  18   1.0000      -2.315556       -63.0095
  19   1.0000      -2.310494       -62.8717
  20   1.0000      -2.309508       -62.8449
  21   1.0000      -2.309240       -62.8376
  22   1.0000      -2.307462       -62.7892
  23   1.0000      -2.306799       -62.7712
  24   1.0000      -2.306480       -62.7625
  25   1.0000      -2.306197       -62.7548
  26   1.0000      -2.303685       -62.6865
  27   1.0000      -2.303246       -62.6745
  28   1.0000      -2.302862       -62.6641
  29   1.0000      -2.302460       -62.6531
  30   1.0000      -2.301559       -62.6286
  31   1.0000      -2.301436       -62.6253
  32   1.0000      -2.301179       -62.6183
  33   1.0000      -2.300971       -62.6126
  34   1.0000      -2.300846       -62.6092
  35   1.0000      -2.300756       -62.6068
  36   1.0000      -2.299840       -62.5818
  37   1.0000      -2.299744       -62.5792
  38   1.0000      -2.299090       -62.5614
  39   1.0000      -2.297764       -62.5253
  40   1.0000      -2.297268       -62.5118
  41   1.0000      -2.296889       -62.5015
  42   1.0000      -2.296366       -62.4873
  43   1.0000      -2.296249       -62.4841
  44   1.0000      -2.295281       -62.4578
  45   1.0000      -2.294517       -62.4370
  46   1.0000      -2.294255       -62.4298
  47   1.0000      -2.294196       -62.4282
  48   1.0000      -2.293676       -62.4141
  49   1.0000      -2.292798       -62.3902
  50   1.0000      -2.292763       -62.3892
  51   1.0000      -2.292702       -62.3876
  52   1.0000      -2.290102       -62.3168
  53   1.0000      -2.290019       -62.3146
  54   1.0000      -1.895342       -51.5749
  55   1.0000      -1.894865       -51.5619
  56   1.0000      -1.891789       -51.4782
  57   1.0000      -0.419221       -11.4076
  58   1.0000      -0.395554       -10.7636
  59   1.0000      -0.384533       -10.4637
  60   1.0000      -0.378770       -10.3069
  61   1.0000      -0.372736       -10.1427
  62   1.0000      -0.369333       -10.0501
  63   1.0000      -0.366891        -9.9836
  64   1.0000      -0.366355        -9.9690
  65   1.0000      -0.355412        -9.6712
  66   1.0000      -0.355347        -9.6695
  67   1.0000      -0.353147        -9.6096
  68   1.0000      -0.351649        -9.5689
  69   1.0000      -0.349958        -9.5228
  70   1.0000      -0.343826        -9.3560
  71   1.0000      -0.343225        -9.3396
  72   1.0000      -0.340491        -9.2652
  73   1.0000      -0.338225        -9.2036
  74   1.0000      -0.335752        -9.1363
  75   1.0000      -0.332037        -9.0352
  76   1.0000      -0.329814        -8.9747
  77   1.0000      -0.323238        -8.7958
  78   1.0000      -0.322491        -8.7754
  79   1.0000      -0.322335        -8.7712
  80   1.0000      -0.320466        -8.7203
  81   1.0000      -0.318685        -8.6718
  82   1.0000      -0.315695        -8.5905
  83   1.0000      -0.312406        -8.5010
  84   1.0000      -0.306789        -8.3482
  85   1.0000      -0.306393        -8.3374
  86   1.0000      -0.305103        -8.3023
  87   1.0000      -0.301495        -8.2041
  88   1.0000      -0.299691        -8.1550
  89   1.0000      -0.299046        -8.1375
  90   1.0000      -0.296026        -8.0553
  91   1.0000      -0.295551        -8.0424
  92   1.0000      -0.293063        -7.9746
  93   1.0000      -0.290596        -7.9075
  94   1.0000      -0.288276        -7.8444
  95   1.0000      -0.285160        -7.7596
  96   1.0000      -0.284400        -7.7389
  97   1.0000      -0.281957        -7.6724
  98   1.0000      -0.281647        -7.6640
  99   1.0000      -0.279632        -7.6092
 100   1.0000      -0.278816        -7.5870
 101   1.0000      -0.277338        -7.5468
 102   1.0000      -0.277240        -7.5441
 103   1.0000      -0.275177        -7.4879
 104   1.0000      -0.273410        -7.4399
 105   1.0000      -0.272508        -7.4153
 106   1.0000      -0.269157        -7.3241
 107   1.0000      -0.268340        -7.3019
 108   1.0000      -0.265447        -7.2232
 109   1.0000      -0.264366        -7.1938
 110   1.0000      -0.264238        -7.1903
 111   1.0000      -0.260898        -7.0994
 112   1.0000      -0.259029        -7.0485
 113   1.0000      -0.258607        -7.0371
 114   1.0000      -0.256250        -6.9729
 115   1.0000      -0.256113        -6.9692
 116   1.0000      -0.251794        -6.8517
 117   1.0000      -0.249837        -6.7984
 118   1.0000      -0.243451        -6.6246
 119   1.0000      -0.240994        -6.5578
 120   1.0000      -0.233956        -6.3663
 121   1.0000      -0.222590        -6.0570
 122   1.0000      -0.219694        -5.9782
 123   1.0000      -0.202906        -5.5214
 124   1.0000      -0.183835        -5.0024
 125   0.0000      -0.144578        -3.9342
 126   0.0000      -0.136619        -3.7176
 127   0.0000      -0.126993        -3.4557
 128   0.0000      -0.115569        -3.1448
 129   0.0000      -0.114360        -3.1119

MULLIKEN ATOMIC CHARGES AND SPIN POPULATIONS
--------------------------------------------
   0 Au:    0.259412   -0.001875
   1 Au:    0.090104   -0.126778
   2 Au:    0.168339   -0.069447
   3 Au:    0.167691   -0.069370
   4 Au:    0.092035   -0.171814
   5 Au:    0.094039   -0.172493
   6 Au:    0.090704   -0.126833
   7 Au:    0.210753   -0.134260
   8 Au:    0.287554   -0.105223
   9 Au:   -0.151918   -0.027338
  10 Au:    0.288362   -0.104278
  11 Au:    0.209574   -0.134302
  12 Mn:   -1.806648    4.244013
Sum of atomic charges         :    0.0000000

LOEWDIN ATOMIC CHARGES AND SPIN POPULATIONS
-------------------------------------------
   0 Au:    0.037670   -0.041021
   1 Au:    0.028180   -0.104449
   2 Au:    0.023918   -0.074039
   3 Au:    0.023772   -0.074222
   4 Au:    0.046912   -0.109380
   5 Au:    0.047307   -0.109752
   6 Au:    0.028226   -0.104651
   7 Au:    0.038926   -0.124078
   8 Au:    0.079785   -0.119566
   9 Au:   -0.069070   -0.029588
  10 Au:    0.080134   -0.118778
  11 Au:    0.038478   -0.124142
  12 Mn:   -0.404237    4.133667

  Mayer bond orders larger than 0.100000
B(  0-Au,  1-Au) :   0.2748 B(  0-Au,  2-Au) :   0.2354 B(  0-Au,  3-Au) :   0.2357
B(  0-Au,  6-Au) :   0.2745 B(  1-Au,  2-Au) :   0.1471 B(  1-Au,  6-Au) :   0.1723
B(  1-Au,  7-Au) :   0.3524 B(  1-Au, 12-Mn) :   0.4755 B(  2-Au,  3-Au) :   0.1800
B(  2-Au,  4-Au) :   0.3674 B(  2-Au, 12-Mn) :   0.5111 B(  3-Au,  5-Au) :   0.3669
B(  3-Au,  6-Au) :   0.1485 B(  3-Au, 12-Mn) :   0.5113 B(  4-Au,  7-Au) :   0.1182
B(  4-Au,  8-Au) :   0.3763 B(  4-Au, 12-Mn) :   0.5505 B(  5-Au, 10-Au) :   0.3743
B(  5-Au, 11-Au) :   0.1191 B(  5-Au, 12-Mn) :   0.5490 B(  6-Au, 11-Au) :   0.3530
B(  6-Au, 12-Mn) :   0.4746 B(  7-Au,  8-Au) :   0.2172 B(  7-Au,  9-Au) :   0.2321
B(  7-Au, 12-Mn) :   0.5248 B(  8-Au,  9-Au) :   0.4433 B(  9-Au, 10-Au) :   0.4436
B(  9-Au, 11-Au) :   0.2313 B(  9-Au, 12-Mn) :   0.3152 B( 10-Au, 11-Au) :   0.2187
B( 11-Au, 12-Mn) :   0.5246

FINAL SINGLE POINT ENERGY     -2781.141678206387

DIPOLE MOMENT
-------------
                                X             Y             Z
Electronic contribution:     -6.27542      -0.39438       2.33842
Nuclear contribution   :      6.14300       0.35693      -2.30332
                        -----------------------------------------
Total Dipole Moment    :     -0.13242      -0.03745       0.03510
                        -----------------------------------------
Magnitude (a.u.)       :      0.14202
Magnitude (Debye)      :      0.36099

Rotational constants in cm-1:     0.001535     0.001171     0.000911
Rotational constants in MHz :    46.010758    35.107292    27.306238

                             ****ORCA TERMINATED NORMALLY****
TOTAL RUN TIME: 0 days 0 hours 9 minutes 55 seconds 291 msec
