                         Program Version 5.0.3 -  RELEASE  -
|  1> !RI-B2PLYP def2-TZVP def2-TZVP/C
|  2> !RIJCOSX VERYSLOWCONV
|  3>
|  4> %scf
|  5>   AutoTRAHIter 200
|  6>   maxiter 400
|  7> end
|  8>
|  9>
| 10> %pal nprocs 6 end
| 11>
| 12> *xyzfile 0 6 pbe.xyz
| 13>
| 14> $new_job
| 15>
| 16> !RI-B2PLYP def2-TZVP def2-TZVP/C
| 17> !RIJCOSX VERYSLOWCONV
| 18>
| 19> %scf
| 20>   AutoTRAHIter 200
| 21>   maxiter 400
| 22> end
| 23>
| 24>
| 25> %pal nprocs 6 end
| 26>
| 27> *xyzfile 0 4 pbe.xyz
| 28>
| 29>
| 30>
| 31>
| 32>
| 33>                          ****END OF INPUT****
 Total Charge           Charge          ....    0
 Multiplicity           Mult            ....    6
 Number of Electrons    NEL             ....  291
MP2 TOTAL ENERGY:    -3049.050093063 Eh
FINAL SINGLE POINT ENERGY     -3049.050093062813

CARTESIAN COORDINATES (ANGSTROEM)
---------------------------------
  Au     6.531918    8.513357   10.389200
  Au     5.471411    6.137117    9.409247
  Au     8.312957    6.527592    9.576977
  Au     8.820095    9.277332    9.003073
  Au     7.071139    4.679719    7.728604
  Au     9.562478    5.851850    7.169757
  Au    10.051020    8.453865    6.631444
  Au     8.182857   10.549972    6.491465
  Au     7.966843    8.430450    4.656095
  Au     5.657369    9.244186    6.006392
  Au     7.475939    5.829903    5.198494
  Au     5.137424    6.496080    6.576824
  Au     4.410467    8.493217    8.377623
  Au     6.297945   10.535470    8.488475
  Mn     7.420597    7.696756    7.329469

 Multiplicity           Mult            ....    4
 Number of Electrons    NEL             ....  291
 Basis Dimension        Dim             ....  605

ORBITAL ENERGIES
----------------
                 SPIN UP ORBITALS
  NO   OCC          E(Eh)            E(eV)
   0   1.0000    -237.634259     -6466.3569
   1   1.0000     -28.134341      -765.5743
   2   1.0000     -24.052400      -654.4991
   3   1.0000     -24.052359      -654.4980
   4   1.0000     -24.052102      -654.4910
   5   1.0000      -4.410291      -120.0101
   6   1.0000      -4.410276      -120.0097
   7   1.0000      -4.410150      -120.0063
   8   1.0000      -4.410144      -120.0061
   9   1.0000      -4.396243      -119.6279
  10   1.0000      -4.396037      -119.6223
  11   1.0000      -4.395468      -119.6068
  12   1.0000      -4.395323      -119.6028
  13   1.0000      -4.395029      -119.5948
  14   1.0000      -4.394982      -119.5935
  15   1.0000      -4.394877      -119.5907
  16   1.0000      -4.394838      -119.5896
  17   1.0000      -4.393894      -119.5639
  18   1.0000      -4.393625      -119.5566
  19   1.0000      -3.612351       -98.2971
  20   1.0000      -2.531703       -68.8911
  21   1.0000      -2.531579       -68.8878
  22   1.0000      -2.530456       -68.8572
  23   1.0000      -2.530384       -68.8552
  24   1.0000      -2.528530       -68.8048
  25   1.0000      -2.528488       -68.8037
  26   1.0000      -2.527481       -68.7763
  27   1.0000      -2.527423       -68.7747
  28   1.0000      -2.526791       -68.7575
  29   1.0000      -2.526735       -68.7559
  30   1.0000      -2.524856       -68.7048
  31   1.0000      -2.524812       -68.7036
  32   1.0000      -2.516860       -68.4872
  33   1.0000      -2.516387       -68.4744
  34   1.0000      -2.515956       -68.4626
  35   1.0000      -2.515823       -68.4590
  36   1.0000      -2.515035       -68.4376
  37   1.0000      -2.514927       -68.4346
  38   1.0000      -2.513916       -68.4071
  39   1.0000      -2.513901       -68.4067
  40   1.0000      -2.513539       -68.3969
  41   1.0000      -2.513460       -68.3947
  42   1.0000      -2.513203       -68.3877
  43   1.0000      -2.512530       -68.3694
  44   1.0000      -2.512210       -68.3607
  45   1.0000      -2.511935       -68.3532
  46   1.0000      -2.511833       -68.3505
  47   1.0000      -2.511546       -68.3426
  48   1.0000      -2.511063       -68.3295
  49   1.0000      -2.511022       -68.3284
  50   1.0000      -2.510937       -68.3261
  51   1.0000      -2.510540       -68.3153
  52   1.0000      -2.510134       -68.3042
  53   1.0000      -2.509809       -68.2954
  54   1.0000      -2.509009       -68.2736
  55   1.0000      -2.508929       -68.2714
  56   1.0000      -2.508863       -68.2696
  57   1.0000      -2.508785       -68.2675
  58   1.0000      -2.508741       -68.2663
  59   1.0000      -2.508644       -68.2637
  60   1.0000      -2.508165       -68.2506
  61   1.0000      -2.508111       -68.2492
  62   1.0000      -2.414755       -65.7088
  63   1.0000      -2.414446       -65.7004
  64   1.0000      -2.413539       -65.6757
  65   1.0000      -0.522136       -14.2080
  66   1.0000      -0.521275       -14.1846
  67   1.0000      -0.519034       -14.1236
  68   1.0000      -0.518749       -14.1159
  69   1.0000      -0.517227       -14.0744
  70   1.0000      -0.507182       -13.8011
  71   1.0000      -0.468247       -12.7417
  72   1.0000      -0.467192       -12.7129
  73   1.0000      -0.463003       -12.5990
  74   1.0000      -0.459984       -12.5168
  75   1.0000      -0.457964       -12.4618
  76   1.0000      -0.457690       -12.4544
  77   1.0000      -0.456683       -12.4270
  78   1.0000      -0.456488       -12.4217
  79   1.0000      -0.455216       -12.3870
  80   1.0000      -0.453605       -12.3432
  81   1.0000      -0.452641       -12.3170
  82   1.0000      -0.452311       -12.3080
  83   1.0000      -0.448630       -12.2078
  84   1.0000      -0.447706       -12.1827
  85   1.0000      -0.446775       -12.1574
  86   1.0000      -0.446151       -12.1404
  87   1.0000      -0.442868       -12.0511
  88   1.0000      -0.441801       -12.0220
  89   1.0000      -0.436811       -11.8862
  90   1.0000      -0.435864       -11.8605
  91   1.0000      -0.435650       -11.8546
  92   1.0000      -0.432937       -11.7808
  93   1.0000      -0.429367       -11.6837
  94   1.0000      -0.428151       -11.6506
  95   1.0000      -0.422916       -11.5081
  96   1.0000      -0.422903       -11.5078
  97   1.0000      -0.421662       -11.4740
  98   1.0000      -0.417373       -11.3573
  99   1.0000      -0.413440       -11.2503
 100   1.0000      -0.412606       -11.2276
 101   1.0000      -0.406229       -11.0540
 102   1.0000      -0.405636       -11.0379
 103   1.0000      -0.403542       -10.9809
 104   1.0000      -0.402514       -10.9530
 105   1.0000      -0.402396       -10.9498
 106   1.0000      -0.393182       -10.6990
 107   1.0000      -0.390402       -10.6234
 108   1.0000      -0.390072       -10.6144
 109   1.0000      -0.382156       -10.3990
 110   1.0000      -0.381946       -10.3933
 111   1.0000      -0.374017       -10.1775
 112   1.0000      -0.373458       -10.1623
 113   1.0000      -0.371956       -10.1214
 114   1.0000      -0.371639       -10.1128
 115   1.0000      -0.371498       -10.1090
 116   1.0000      -0.370507       -10.0820
 117   1.0000      -0.367967       -10.0129
 118   1.0000      -0.366386        -9.9699
 119   1.0000      -0.362491        -9.8639
 120   1.0000      -0.360861        -9.8195
 121   1.0000      -0.360704        -9.8152
 122   1.0000      -0.359246        -9.7756
 123   1.0000      -0.357773        -9.7355
 124   1.0000      -0.355500        -9.6737
 125   1.0000      -0.354525        -9.6471
 126   1.0000      -0.353659        -9.6236
 127   1.0000      -0.352624        -9.5954
 128   1.0000      -0.350600        -9.5403
 129   1.0000      -0.349544        -9.5116
 130   1.0000      -0.348354        -9.4792
 131   1.0000      -0.346477        -9.4281
 132   1.0000      -0.344049        -9.3620
 133   1.0000      -0.342533        -9.3208
 134   1.0000      -0.341385        -9.2896
 135   1.0000      -0.338029        -9.1982
 136   1.0000      -0.335280        -9.1234
 137   1.0000      -0.331855        -9.0302
 138   1.0000      -0.328604        -8.9418
 139   1.0000      -0.328537        -8.9399
 140   1.0000      -0.316115        -8.6019
 141   1.0000      -0.315610        -8.5882
 142   1.0000      -0.314871        -8.5681
 143   1.0000      -0.295339        -8.0366
 144   1.0000      -0.225153        -6.1267
 145   1.0000      -0.222598        -6.0572
 146   1.0000      -0.220187        -5.9916
 147   0.0000      -0.134259        -3.6534
 148   0.0000      -0.128436        -3.4949
 149   0.0000      -0.075020        -2.0414
 150   0.0000      -0.058953        -1.6042
 151   0.0000      -0.056044        -1.5250

                 SPIN DOWN ORBITALS
  NO   OCC          E(Eh)            E(eV)
   0   1.0000    -237.632291     -6466.3034
   1   1.0000     -28.033297      -762.8248
   2   1.0000     -23.960060      -651.9864
   3   1.0000     -23.959492      -651.9709
   4   1.0000     -23.958881      -651.9543
   5   1.0000      -4.410801      -120.0240
   6   1.0000      -4.410785      -120.0236
   7   1.0000      -4.410662      -120.0202
   8   1.0000      -4.410651      -120.0199
   9   1.0000      -4.396829      -119.6438
  10   1.0000      -4.396580      -119.6370
  11   1.0000      -4.396127      -119.6247
  12   1.0000      -4.395981      -119.6207
  13   1.0000      -4.395760      -119.6147
  14   1.0000      -4.395633      -119.6113
  15   1.0000      -4.395605      -119.6105
  16   1.0000      -4.395489      -119.6073
  17   1.0000      -4.394931      -119.5922
  18   1.0000      -4.394667      -119.5850
  19   1.0000      -3.328374       -90.5697
  20   1.0000      -2.530740       -68.8649
  21   1.0000      -2.530696       -68.8637
  22   1.0000      -2.529057       -68.8192
  23   1.0000      -2.529040       -68.8187
  24   1.0000      -2.528292       -68.7983
  25   1.0000      -2.528261       -68.7975
  26   1.0000      -2.527659       -68.7811
  27   1.0000      -2.527595       -68.7794
  28   1.0000      -2.526794       -68.7575
  29   1.0000      -2.526724       -68.7556
  30   1.0000      -2.524932       -68.7069
  31   1.0000      -2.524868       -68.7051
  32   1.0000      -2.517338       -68.5002
  33   1.0000      -2.516908       -68.4885
  34   1.0000      -2.516169       -68.4684
  35   1.0000      -2.515797       -68.4583
  36   1.0000      -2.515613       -68.4533
  37   1.0000      -2.515349       -68.4461
  38   1.0000      -2.514643       -68.4269
  39   1.0000      -2.514369       -68.4195
  40   1.0000      -2.514329       -68.4184
  41   1.0000      -2.514086       -68.4118
  42   1.0000      -2.513977       -68.4088
  43   1.0000      -2.513799       -68.4039
  44   1.0000      -2.513627       -68.3993
  45   1.0000      -2.512842       -68.3779
  46   1.0000      -2.512686       -68.3737
  47   1.0000      -2.512480       -68.3681
  48   1.0000      -2.512234       -68.3614
  49   1.0000      -2.512083       -68.3573
  50   1.0000      -2.511976       -68.3544
  51   1.0000      -2.511652       -68.3455
  52   1.0000      -2.510837       -68.3233
  53   1.0000      -2.510443       -68.3126
  54   1.0000      -2.509968       -68.2997
  55   1.0000      -2.509590       -68.2894
  56   1.0000      -2.509489       -68.2867
  57   1.0000      -2.509400       -68.2842
  58   1.0000      -2.509318       -68.2820
  59   1.0000      -2.509199       -68.2788
  60   1.0000      -2.508872       -68.2699
  61   1.0000      -2.508799       -68.2679
  62   1.0000      -2.090266       -56.8790
  63   1.0000      -2.089434       -56.8564
  64   1.0000      -2.087751       -56.8106
  65   1.0000      -0.509814       -13.8727
  66   1.0000      -0.473864       -12.8945
  67   1.0000      -0.470427       -12.8010
  68   1.0000      -0.467788       -12.7292
  69   1.0000      -0.466696       -12.6994
  70   1.0000      -0.465238       -12.6598
  71   1.0000      -0.463162       -12.6033
  72   1.0000      -0.460813       -12.5394
  73   1.0000      -0.459926       -12.5152
  74   1.0000      -0.459717       -12.5095
  75   1.0000      -0.459338       -12.4992
  76   1.0000      -0.458561       -12.4781
  77   1.0000      -0.457450       -12.4478
  78   1.0000      -0.457140       -12.4394
  79   1.0000      -0.456333       -12.4175
  80   1.0000      -0.455093       -12.3837
  81   1.0000      -0.452913       -12.3244
  82   1.0000      -0.452542       -12.3143
  83   1.0000      -0.448646       -12.2083
  84   1.0000      -0.446759       -12.1569
  85   1.0000      -0.445556       -12.1242
  86   1.0000      -0.438825       -11.9410
  87   1.0000      -0.438039       -11.9197
  88   1.0000      -0.437812       -11.9135
  89   1.0000      -0.432050       -11.7567
  90   1.0000      -0.431735       -11.7481
  91   1.0000      -0.427305       -11.6276
  92   1.0000      -0.425480       -11.5779
  93   1.0000      -0.420716       -11.4483
  94   1.0000      -0.416830       -11.3425
  95   1.0000      -0.415229       -11.2989
  96   1.0000      -0.412467       -11.2238
  97   1.0000      -0.411796       -11.2055
  98   1.0000      -0.410701       -11.1757
  99   1.0000      -0.409146       -11.1334
 100   1.0000      -0.404733       -11.0133
 101   1.0000      -0.395340       -10.7577
 102   1.0000      -0.394477       -10.7343
 103   1.0000      -0.392278       -10.6744
 104   1.0000      -0.392221       -10.6729
 105   1.0000      -0.390944       -10.6381
 106   1.0000      -0.390666       -10.6306
 107   1.0000      -0.378720       -10.3055
 108   1.0000      -0.376620       -10.2484
 109   1.0000      -0.375627       -10.2213
 110   1.0000      -0.373033       -10.1507
 111   1.0000      -0.372567       -10.1381
 112   1.0000      -0.368295       -10.0218
 113   1.0000      -0.367071        -9.9885
 114   1.0000      -0.364523        -9.9192
 115   1.0000      -0.364152        -9.9091
 116   1.0000      -0.363119        -9.8810
 117   1.0000      -0.362219        -9.8565
 118   1.0000      -0.361180        -9.8282
 119   1.0000      -0.357666        -9.7326
 120   1.0000      -0.357252        -9.7213
 121   1.0000      -0.355934        -9.6854
 122   1.0000      -0.355579        -9.6758
 123   1.0000      -0.353898        -9.6301
 124   1.0000      -0.352764        -9.5992
 125   1.0000      -0.351859        -9.5746
 126   1.0000      -0.350002        -9.5240
 127   1.0000      -0.347586        -9.4583
 128   1.0000      -0.344224        -9.3668
 129   1.0000      -0.342499        -9.3199
 130   1.0000      -0.340347        -9.2613
 131   1.0000      -0.337239        -9.1767
 132   1.0000      -0.332223        -9.0403
 133   1.0000      -0.331435        -9.0188
 134   1.0000      -0.330715        -8.9992
 135   1.0000      -0.322464        -8.7747
 136   1.0000      -0.322306        -8.7704
 137   1.0000      -0.316859        -8.6222
 138   1.0000      -0.313413        -8.5284
 139   1.0000      -0.238127        -6.4798
 140   1.0000      -0.233018        -6.3407
 141   1.0000      -0.230593        -6.2748
 142   1.0000      -0.230333        -6.2677
 143   1.0000      -0.219704        -5.9784
 144   0.0000      -0.073881        -2.0104
 145   0.0000      -0.060884        -1.6567
 146   0.0000      -0.060467        -1.6454
 147   0.0000      -0.058712        -1.5976
 148   0.0000      -0.053356        -1.4519

MULLIKEN ATOMIC CHARGES AND SPIN POPULATIONS
--------------------------------------------
   0 Au:    0.113975   -0.039509
   1 Au:    0.084433   -0.058589
   2 Au:    0.205263   -0.265722
   3 Au:    0.201386   -0.263196
   4 Au:    0.174319   -0.004878
   5 Au:    0.204646   -0.047958
   6 Au:    0.204118   -0.056087
   7 Au:    0.174304   -0.007161
   8 Au:    0.203773   -0.053898
   9 Au:    0.202388   -0.263360
  10 Au:    0.203859   -0.046215
  11 Au:    0.204965   -0.265559
  12 Au:    0.113146   -0.041117
  13 Au:    0.086603   -0.051677
  14 Mn:   -2.377179    4.464927
Sum of atomic charges         :   -0.0000000

LOEWDIN ATOMIC CHARGES AND SPIN POPULATIONS
-------------------------------------------
   0 Au:    0.011752   -0.093685
   1 Au:    0.002744   -0.085668
   2 Au:    0.038803   -0.151723
   3 Au:    0.036867   -0.150956
   4 Au:    0.019349   -0.072681
   5 Au:    0.038003   -0.087198
   6 Au:    0.039202   -0.091789
   7 Au:    0.020564   -0.075894
   8 Au:    0.038875   -0.090714
   9 Au:    0.037197   -0.150867
  10 Au:    0.037764   -0.086466
  11 Au:    0.038573   -0.151551
  12 Au:    0.011557   -0.094311
  13 Au:    0.001853   -0.080401
  14 Mn:   -0.373102    4.463906

  Mayer bond orders larger than 0.100000
B(  0-Au,  1-Au) :   0.2226 B(  0-Au,  2-Au) :   0.2340 B(  0-Au,  3-Au) :   0.2401
B(  0-Au, 12-Au) :   0.1257 B(  0-Au, 13-Au) :   0.2215 B(  0-Au, 14-Mn) :   0.2933
B(  1-Au,  2-Au) :   0.1608 B(  1-Au,  4-Au) :   0.2773 B(  1-Au, 11-Au) :   0.1595
B(  1-Au, 12-Au) :   0.2209 B(  1-Au, 14-Mn) :   0.2823 B(  2-Au,  3-Au) :   0.1450
B(  2-Au,  4-Au) :   0.1432 B(  2-Au,  5-Au) :   0.1774 B(  2-Au, 14-Mn) :   0.4394
B(  3-Au,  6-Au) :   0.1743 B(  3-Au,  7-Au) :   0.1464 B(  3-Au, 13-Au) :   0.1653
B(  3-Au, 14-Mn) :   0.4355 B(  4-Au,  5-Au) :   0.1910 B(  4-Au, 10-Au) :   0.1915
B(  4-Au, 11-Au) :   0.1439 B(  4-Au, 14-Mn) :   0.3259 B(  5-Au,  6-Au) :   0.2747
B(  5-Au, 10-Au) :   0.1194 B(  5-Au, 14-Mn) :   0.4126 B(  6-Au,  7-Au) :   0.1900
B(  6-Au,  8-Au) :   0.1195 B(  6-Au, 14-Mn) :   0.4151 B(  7-Au,  8-Au) :   0.1900
B(  7-Au,  9-Au) :   0.1471 B(  7-Au, 13-Au) :   0.2747 B(  7-Au, 14-Mn) :   0.3246
B(  8-Au,  9-Au) :   0.1741 B(  8-Au, 10-Au) :   0.2753 B(  8-Au, 14-Mn) :   0.4147
B(  9-Au, 11-Au) :   0.1451 B(  9-Au, 12-Au) :   0.2399 B(  9-Au, 13-Au) :   0.1625
B(  9-Au, 14-Mn) :   0.4364 B( 10-Au, 11-Au) :   0.1775 B( 10-Au, 14-Mn) :   0.4114
B( 11-Au, 12-Au) :   0.2355 B( 11-Au, 14-Mn) :   0.4390 B( 12-Au, 13-Au) :   0.2219
B( 12-Au, 14-Mn) :   0.2946 B( 13-Au, 14-Mn) :   0.2772

MP2 TOTAL ENERGY:    -3049.068753776 Eh
FINAL SINGLE POINT ENERGY     -3049.068753775889

DIPOLE MOMENT
-------------
                                X             Y             Z
Electronic contribution:     -7.62483       3.28793       8.02280
Nuclear contribution   :      7.66127      -3.29950      -8.05919
                        -----------------------------------------
Total Dipole Moment    :      0.03644      -0.01157      -0.03639
                        -----------------------------------------
Magnitude (a.u.)       :      0.05279
Magnitude (Debye)      :      0.13417

Rotational constants in cm-1:     0.001126     0.001115     0.000955
Rotational constants in MHz :    33.753027    33.433112    28.617638

                             ****ORCA TERMINATED NORMALLY****
TOTAL RUN TIME: 0 days 0 hours 56 minutes 45 seconds 836 msec
