                         Program Version 5.0.3 -  RELEASE  -
|  1> !PBE def2-TZVP VERYSLOWCONV
|  2> !KDIIS
|  3>
|  4> %scf
|  5>   AutoTRAHIter 200
|  6>   maxiter 400
|  7> end
|  8>
|  9>
| 10> %pal nprocs 6 end
| 11>
| 12> *xyzfile 0 6 pbe.xyz
| 13>
| 14> $new_job
| 15>
| 16> !PBE def2-TZVP VERYSLOWCONV
| 17> !KDIIS
| 18>
| 19> %scf
| 20>   AutoTRAHIter 200
| 21>   maxiter 400
| 22> end
| 23>
| 24>
| 25> %pal nprocs 6 end
| 26>
| 27> *xyzfile 0 4 pbe.xyz
| 28>
| 29>
| 30>
| 31>
| 32>
| 33>                          ****END OF INPUT****
 Total Charge           Charge          ....    0
 Multiplicity           Mult            ....    6
 Number of Electrons    NEL             ....  291
FINAL SINGLE POINT ENERGY     -3052.349273992383

CARTESIAN COORDINATES (ANGSTROEM)
---------------------------------
  Au     6.531918    8.513357   10.389200
  Au     5.471411    6.137117    9.409247
  Au     8.312957    6.527592    9.576977
  Au     8.820095    9.277332    9.003073
  Au     7.071139    4.679719    7.728604
  Au     9.562478    5.851850    7.169757
  Au    10.051020    8.453865    6.631444
  Au     8.182857   10.549972    6.491465
  Au     7.966843    8.430450    4.656095
  Au     5.657369    9.244186    6.006392
  Au     7.475939    5.829903    5.198494
  Au     5.137424    6.496080    6.576824
  Au     4.410467    8.493217    8.377623
  Au     6.297945   10.535470    8.488475
  Mn     7.420597    7.696756    7.329469

 Multiplicity           Mult            ....    4
 Number of Electrons    NEL             ....  291
 Basis Dimension        Dim             ....  605

ORBITAL ENERGIES
----------------
                 SPIN UP ORBITALS
  NO   OCC          E(Eh)            E(eV)
   0   1.0000    -234.212022     -6373.2331
   1   1.0000     -26.905138      -732.1260
   2   1.0000     -23.054190      -627.3364
   3   1.0000     -23.053794      -627.3256
   4   1.0000     -23.053255      -627.3110
   5   1.0000      -4.037645      -109.8699
   6   1.0000      -4.037619      -109.8692
   7   1.0000      -4.037537      -109.8670
   8   1.0000      -4.037506      -109.8661
   9   1.0000      -4.026976      -109.5796
  10   1.0000      -4.026837      -109.5758
  11   1.0000      -4.025682      -109.5444
  12   1.0000      -4.025582      -109.5417
  13   1.0000      -4.025449      -109.5380
  14   1.0000      -4.025344      -109.5352
  15   1.0000      -4.025329      -109.5348
  16   1.0000      -4.025247      -109.5325
  17   1.0000      -4.024939      -109.5242
  18   1.0000      -4.024626      -109.5157
  19   1.0000      -3.113943       -84.7347
  20   1.0000      -2.253401       -61.3181
  21   1.0000      -2.253370       -61.3173
  22   1.0000      -2.252355       -61.2897
  23   1.0000      -2.252316       -61.2886
  24   1.0000      -2.251456       -61.2652
  25   1.0000      -2.251429       -61.2645
  26   1.0000      -2.250710       -61.2449
  27   1.0000      -2.250673       -61.2439
  28   1.0000      -2.248935       -61.1966
  29   1.0000      -2.248889       -61.1954
  30   1.0000      -2.247704       -61.1631
  31   1.0000      -2.247656       -61.1618
  32   1.0000      -2.242871       -61.0316
  33   1.0000      -2.242692       -61.0268
  34   1.0000      -2.241456       -60.9931
  35   1.0000      -2.241275       -60.9882
  36   1.0000      -2.240979       -60.9801
  37   1.0000      -2.240544       -60.9683
  38   1.0000      -2.240126       -60.9569
  39   1.0000      -2.239928       -60.9515
  40   1.0000      -2.239824       -60.9487
  41   1.0000      -2.239716       -60.9458
  42   1.0000      -2.239578       -60.9420
  43   1.0000      -2.238948       -60.9249
  44   1.0000      -2.238568       -60.9145
  45   1.0000      -2.238531       -60.9135
  46   1.0000      -2.238312       -60.9076
  47   1.0000      -2.238277       -60.9066
  48   1.0000      -2.238052       -60.9005
  49   1.0000      -2.237596       -60.8881
  50   1.0000      -2.237218       -60.8778
  51   1.0000      -2.237060       -60.8735
  52   1.0000      -2.236622       -60.8616
  53   1.0000      -2.236598       -60.8609
  54   1.0000      -2.236583       -60.8605
  55   1.0000      -2.236529       -60.8590
  56   1.0000      -2.236480       -60.8577
  57   1.0000      -2.235471       -60.8303
  58   1.0000      -2.235150       -60.8215
  59   1.0000      -2.234791       -60.8118
  60   1.0000      -2.234683       -60.8088
  61   1.0000      -2.234609       -60.8068
  62   1.0000      -2.017509       -54.8992
  63   1.0000      -2.016560       -54.8734
  64   1.0000      -2.015495       -54.8444
  65   1.0000      -0.435309       -11.8454
  66   1.0000      -0.389836       -10.6080
  67   1.0000      -0.386760       -10.5243
  68   1.0000      -0.382753       -10.4153
  69   1.0000      -0.376305       -10.2398
  70   1.0000      -0.371380       -10.1058
  71   1.0000      -0.369487       -10.0543
  72   1.0000      -0.369340       -10.0503
  73   1.0000      -0.365904        -9.9568
  74   1.0000      -0.362662        -9.8685
  75   1.0000      -0.356385        -9.6977
  76   1.0000      -0.356145        -9.6912
  77   1.0000      -0.354599        -9.6491
  78   1.0000      -0.354306        -9.6412
  79   1.0000      -0.351908        -9.5759
  80   1.0000      -0.351554        -9.5663
  81   1.0000      -0.349665        -9.5149
  82   1.0000      -0.348852        -9.4927
  83   1.0000      -0.348514        -9.4835
  84   1.0000      -0.344115        -9.3638
  85   1.0000      -0.341124        -9.2825
  86   1.0000      -0.337401        -9.1811
  87   1.0000      -0.336515        -9.1570
  88   1.0000      -0.336109        -9.1460
  89   1.0000      -0.334549        -9.1035
  90   1.0000      -0.334420        -9.1000
  91   1.0000      -0.331033        -9.0079
  92   1.0000      -0.323217        -8.7952
  93   1.0000      -0.320732        -8.7276
  94   1.0000      -0.319495        -8.6939
  95   1.0000      -0.318534        -8.6677
  96   1.0000      -0.314923        -8.5695
  97   1.0000      -0.313162        -8.5216
  98   1.0000      -0.313114        -8.5203
  99   1.0000      -0.311515        -8.4768
 100   1.0000      -0.306283        -8.3344
 101   1.0000      -0.300793        -8.1850
 102   1.0000      -0.300642        -8.1809
 103   1.0000      -0.300480        -8.1765
 104   1.0000      -0.294278        -8.0077
 105   1.0000      -0.293079        -7.9751
 106   1.0000      -0.291556        -7.9336
 107   1.0000      -0.291103        -7.9213
 108   1.0000      -0.284483        -7.7412
 109   1.0000      -0.280537        -7.6338
 110   1.0000      -0.278605        -7.5812
 111   1.0000      -0.276354        -7.5200
 112   1.0000      -0.273195        -7.4340
 113   1.0000      -0.273088        -7.4311
 114   1.0000      -0.269717        -7.3394
 115   1.0000      -0.269557        -7.3350
 116   1.0000      -0.268040        -7.2937
 117   1.0000      -0.266758        -7.2588
 118   1.0000      -0.265697        -7.2300
 119   1.0000      -0.264438        -7.1957
 120   1.0000      -0.264294        -7.1918
 121   1.0000      -0.263792        -7.1782
 122   1.0000      -0.263217        -7.1625
 123   1.0000      -0.261509        -7.1160
 124   1.0000      -0.260303        -7.0832
 125   1.0000      -0.257419        -7.0047
 126   1.0000      -0.256379        -6.9764
 127   1.0000      -0.256208        -6.9718
 128   1.0000      -0.255601        -6.9552
 129   1.0000      -0.254576        -6.9274
 130   1.0000      -0.253745        -6.9047
 131   1.0000      -0.251827        -6.8526
 132   1.0000      -0.251510        -6.8439
 133   1.0000      -0.249967        -6.8019
 134   1.0000      -0.249554        -6.7907
 135   1.0000      -0.247241        -6.7278
 136   1.0000      -0.246249        -6.7008
 137   1.0000      -0.244741        -6.6597
 138   1.0000      -0.244712        -6.6590
 139   1.0000      -0.244022        -6.6402
 140   1.0000      -0.242537        -6.5998
 141   1.0000      -0.242294        -6.5932
 142   1.0000      -0.241710        -6.5773
 143   1.0000      -0.231628        -6.3029
 144   1.0000      -0.207704        -5.6519
 145   1.0000      -0.207432        -5.6445
 146   1.0000      -0.201002        -5.4695
 147   0.0000      -0.191847        -5.2204
 148   0.0000      -0.189759        -5.1636
 149   0.0000      -0.136166        -3.7053
 150   0.0000      -0.124103        -3.3770
 151   0.0000      -0.123719        -3.3666

                 SPIN DOWN ORBITALS
  NO   OCC          E(Eh)            E(eV)
   0   1.0000    -234.211343     -6373.2146
   1   1.0000     -26.839545      -730.3411
   2   1.0000     -23.005396      -626.0087
   3   1.0000     -23.004301      -625.9789
   4   1.0000     -23.002146      -625.9202
   5   1.0000      -4.037550      -109.8673
   6   1.0000      -4.037523      -109.8666
   7   1.0000      -4.037447      -109.8645
   8   1.0000      -4.037413      -109.8636
   9   1.0000      -4.027384      -109.5907
  10   1.0000      -4.027219      -109.5862
  11   1.0000      -4.026023      -109.5536
  12   1.0000      -4.025961      -109.5520
  13   1.0000      -4.025900      -109.5503
  14   1.0000      -4.025860      -109.5492
  15   1.0000      -4.025655      -109.5436
  16   1.0000      -4.025625      -109.5428
  17   1.0000      -4.025530      -109.5402
  18   1.0000      -4.025352      -109.5354
  19   1.0000      -2.953111       -80.3582
  20   1.0000      -2.252996       -61.3071
  21   1.0000      -2.252975       -61.3066
  22   1.0000      -2.251695       -61.2717
  23   1.0000      -2.251659       -61.2707
  24   1.0000      -2.251446       -61.2650
  25   1.0000      -2.251416       -61.2641
  26   1.0000      -2.250906       -61.2503
  27   1.0000      -2.250864       -61.2491
  28   1.0000      -2.248995       -61.1983
  29   1.0000      -2.248948       -61.1970
  30   1.0000      -2.247805       -61.1659
  31   1.0000      -2.247753       -61.1645
  32   1.0000      -2.243285       -61.0429
  33   1.0000      -2.243195       -61.0405
  34   1.0000      -2.241807       -61.0027
  35   1.0000      -2.241773       -61.0018
  36   1.0000      -2.241443       -60.9928
  37   1.0000      -2.240719       -60.9731
  38   1.0000      -2.240703       -60.9726
  39   1.0000      -2.240412       -60.9647
  40   1.0000      -2.240314       -60.9620
  41   1.0000      -2.240196       -60.9588
  42   1.0000      -2.240174       -60.9582
  43   1.0000      -2.239898       -60.9507
  44   1.0000      -2.239174       -60.9310
  45   1.0000      -2.239138       -60.9300
  46   1.0000      -2.238795       -60.9207
  47   1.0000      -2.238689       -60.9178
  48   1.0000      -2.238500       -60.9127
  49   1.0000      -2.238385       -60.9096
  50   1.0000      -2.237896       -60.8963
  51   1.0000      -2.237509       -60.8857
  52   1.0000      -2.237340       -60.8811
  53   1.0000      -2.237104       -60.8747
  54   1.0000      -2.237073       -60.8738
  55   1.0000      -2.236742       -60.8648
  56   1.0000      -2.236665       -60.8627
  57   1.0000      -2.235954       -60.8434
  58   1.0000      -2.235506       -60.8312
  59   1.0000      -2.235192       -60.8227
  60   1.0000      -2.234996       -60.8173
  61   1.0000      -2.234912       -60.8150
  62   1.0000      -1.861795       -50.6620
  63   1.0000      -1.859415       -50.5973
  64   1.0000      -1.854652       -50.4677
  65   1.0000      -0.429701       -11.6927
  66   1.0000      -0.389550       -10.6002
  67   1.0000      -0.385029       -10.4772
  68   1.0000      -0.383406       -10.4330
  69   1.0000      -0.369114       -10.0441
  70   1.0000      -0.365418        -9.9435
  71   1.0000      -0.365231        -9.9385
  72   1.0000      -0.364196        -9.9103
  73   1.0000      -0.363305        -9.8860
  74   1.0000      -0.359518        -9.7830
  75   1.0000      -0.357591        -9.7305
  76   1.0000      -0.355958        -9.6861
  77   1.0000      -0.355151        -9.6642
  78   1.0000      -0.354391        -9.6435
  79   1.0000      -0.352575        -9.5941
  80   1.0000      -0.351230        -9.5574
  81   1.0000      -0.349999        -9.5240
  82   1.0000      -0.349721        -9.5164
  83   1.0000      -0.347145        -9.4463
  84   1.0000      -0.344655        -9.3785
  85   1.0000      -0.342278        -9.3139
  86   1.0000      -0.338508        -9.2113
  87   1.0000      -0.336568        -9.1585
  88   1.0000      -0.336493        -9.1564
  89   1.0000      -0.335701        -9.1349
  90   1.0000      -0.330414        -8.9910
  91   1.0000      -0.324669        -8.8347
  92   1.0000      -0.324095        -8.8191
  93   1.0000      -0.320556        -8.7228
  94   1.0000      -0.319949        -8.7062
  95   1.0000      -0.316153        -8.6030
  96   1.0000      -0.314187        -8.5495
  97   1.0000      -0.311774        -8.4838
  98   1.0000      -0.311410        -8.4739
  99   1.0000      -0.309983        -8.4351
 100   1.0000      -0.306404        -8.3377
 101   1.0000      -0.299166        -8.1407
 102   1.0000      -0.296025        -8.0552
 103   1.0000      -0.295386        -8.0379
 104   1.0000      -0.294931        -8.0255
 105   1.0000      -0.293123        -7.9763
 106   1.0000      -0.292447        -7.9579
 107   1.0000      -0.284946        -7.7538
 108   1.0000      -0.280906        -7.6438
 109   1.0000      -0.280357        -7.6289
 110   1.0000      -0.279320        -7.6007
 111   1.0000      -0.277235        -7.5439
 112   1.0000      -0.273580        -7.4445
 113   1.0000      -0.272436        -7.4133
 114   1.0000      -0.270482        -7.3602
 115   1.0000      -0.270011        -7.3474
 116   1.0000      -0.268746        -7.3129
 117   1.0000      -0.267345        -7.2748
 118   1.0000      -0.266379        -7.2485
 119   1.0000      -0.264896        -7.2082
 120   1.0000      -0.263924        -7.1818
 121   1.0000      -0.263761        -7.1773
 122   1.0000      -0.263460        -7.1691
 123   1.0000      -0.261854        -7.1254
 124   1.0000      -0.259075        -7.0498
 125   1.0000      -0.257367        -7.0033
 126   1.0000      -0.256936        -6.9916
 127   1.0000      -0.256785        -6.9875
 128   1.0000      -0.253212        -6.8902
 129   1.0000      -0.251565        -6.8454
 130   1.0000      -0.250095        -6.8054
 131   1.0000      -0.247757        -6.7418
 132   1.0000      -0.247179        -6.7261
 133   1.0000      -0.245643        -6.6843
 134   1.0000      -0.245451        -6.6791
 135   1.0000      -0.243835        -6.6351
 136   1.0000      -0.243826        -6.6348
 137   1.0000      -0.243030        -6.6132
 138   1.0000      -0.233185        -6.3453
 139   1.0000      -0.216630        -5.8948
 140   1.0000      -0.214885        -5.8473
 141   1.0000      -0.211080        -5.7438
 142   1.0000      -0.208957        -5.6860
 143   1.0000      -0.201795        -5.4911
 144   0.0000      -0.136756        -3.7213
 145   0.0000      -0.135411        -3.6847
 146   0.0000      -0.135075        -3.6756
 147   0.0000      -0.135074        -3.6756
 148   0.0000      -0.134380        -3.6567

MULLIKEN ATOMIC CHARGES AND SPIN POPULATIONS
--------------------------------------------
   0 Au:    0.140950   -0.022421
   1 Au:    0.113898   -0.053415
   2 Au:    0.215052   -0.179857
   3 Au:    0.211853   -0.177968
   4 Au:    0.220970   -0.013087
   5 Au:    0.245390   -0.024235
   6 Au:    0.244436   -0.028760
   7 Au:    0.220899   -0.015552
   8 Au:    0.244128   -0.027373
   9 Au:    0.212523   -0.177872
  10 Au:    0.244879   -0.023402
  11 Au:    0.214608   -0.179462
  12 Au:    0.140235   -0.023243
  13 Au:    0.115305   -0.048731
  14 Mn:   -2.785127    3.995378
Sum of atomic charges         :   -0.0000000

LOEWDIN ATOMIC CHARGES AND SPIN POPULATIONS
-------------------------------------------
   0 Au:    0.019266   -0.067848
   1 Au:    0.013211   -0.069787
   2 Au:    0.058756   -0.103742
   3 Au:    0.056634   -0.103006
   4 Au:    0.029449   -0.052177
   5 Au:    0.055125   -0.058628
   6 Au:    0.056127   -0.061262
   7 Au:    0.030429   -0.054840
   8 Au:    0.055894   -0.060578
   9 Au:    0.056929   -0.102856
  10 Au:    0.054926   -0.058313
  11 Au:    0.058442   -0.103489
  12 Au:    0.019109   -0.067991
  13 Au:    0.012226   -0.066179
  14 Mn:   -0.576525    4.030697

  Mayer bond orders larger than 0.100000
B(  0-Au,  1-Au) :   0.2624 B(  0-Au,  2-Au) :   0.2530 B(  0-Au,  3-Au) :   0.2581
B(  0-Au, 12-Au) :   0.1451 B(  0-Au, 13-Au) :   0.2613 B(  0-Au, 14-Mn) :   0.2925
B(  1-Au,  2-Au) :   0.1899 B(  1-Au,  4-Au) :   0.3070 B(  1-Au, 11-Au) :   0.1891
B(  1-Au, 12-Au) :   0.2608 B(  1-Au, 14-Mn) :   0.2790 B(  2-Au,  3-Au) :   0.1609
B(  2-Au,  4-Au) :   0.1715 B(  2-Au,  5-Au) :   0.2104 B(  2-Au, 14-Mn) :   0.4907
B(  3-Au,  6-Au) :   0.2085 B(  3-Au,  7-Au) :   0.1752 B(  3-Au, 13-Au) :   0.1946
B(  3-Au, 14-Mn) :   0.4859 B(  4-Au,  5-Au) :   0.2185 B(  4-Au, 10-Au) :   0.2191
B(  4-Au, 11-Au) :   0.1722 B(  4-Au, 14-Mn) :   0.3226 B(  5-Au,  6-Au) :   0.3004
B(  5-Au, 10-Au) :   0.1503 B(  5-Au, 14-Mn) :   0.4259 B(  6-Au,  7-Au) :   0.2173
B(  6-Au,  8-Au) :   0.1498 B(  6-Au, 14-Mn) :   0.4296 B(  7-Au,  8-Au) :   0.2173
B(  7-Au,  9-Au) :   0.1761 B(  7-Au, 13-Au) :   0.3042 B(  7-Au, 14-Mn) :   0.3211
B(  8-Au,  9-Au) :   0.2079 B(  8-Au, 10-Au) :   0.3010 B(  8-Au, 14-Mn) :   0.4290
B(  9-Au, 11-Au) :   0.1609 B(  9-Au, 12-Au) :   0.2579 B(  9-Au, 13-Au) :   0.1918
B(  9-Au, 14-Mn) :   0.4869 B( 10-Au, 11-Au) :   0.2105 B( 10-Au, 14-Mn) :   0.4247
B( 11-Au, 12-Au) :   0.2546 B( 11-Au, 14-Mn) :   0.4902 B( 12-Au, 13-Au) :   0.2619
B( 12-Au, 14-Mn) :   0.2939 B( 13-Au, 14-Mn) :   0.2730

FINAL SINGLE POINT ENERGY     -3052.368146677214

DIPOLE MOMENT
-------------
                                X             Y             Z
Electronic contribution:     -7.61859       3.28328       8.01593
Nuclear contribution   :      7.66127      -3.29950      -8.05919
                        -----------------------------------------
Total Dipole Moment    :      0.04269      -0.01622      -0.04325
                        -----------------------------------------
Magnitude (a.u.)       :      0.06290
Magnitude (Debye)      :      0.15988

Rotational constants in cm-1:     0.001126     0.001115     0.000955
Rotational constants in MHz :    33.753027    33.433112    28.617638

                             ****ORCA TERMINATED NORMALLY****
TOTAL RUN TIME: 0 days 0 hours 6 minutes 31 seconds 446 msec
