                         Program Version 5.0.3 -  RELEASE  -
|  1> !R2SCAN def2-TZVP VERYSLOWCONV
|  2> !KDIIS
|  3> %scf
|  4>   AutoTRAHIter 200
|  5>   maxiter 400
|  6> end
|  7>
|  8> %pal nprocs 6 end
|  9>
| 10> *xyzfile 0 6 pbe.xyz
| 11>
| 12> $new_job
| 13>
| 14> !R2SCAN def2-TZVP VERYSLOWCONV
| 15> !KDIIS
| 16> %scf
| 17>   AutoTRAHIter 200
| 18>   maxiter 400
| 19> end
| 20>
| 21>
| 22> %pal nprocs 6 end
| 23>
| 24> *xyzfile 0 4 pbe.xyz
| 25>
| 26>
| 27>
| 28>
| 29>
| 30>                          ****END OF INPUT****
 Total Charge           Charge          ....    0
 Multiplicity           Mult            ....    6
 Number of Electrons    NEL             ....  291
FINAL SINGLE POINT ENERGY     -3052.849087036786

CARTESIAN COORDINATES (ANGSTROEM)
---------------------------------
  Au     6.531918    8.513357   10.389200
  Au     5.471411    6.137117    9.409247
  Au     8.312957    6.527592    9.576977
  Au     8.820095    9.277332    9.003073
  Au     7.071139    4.679719    7.728604
  Au     9.562478    5.851850    7.169757
  Au    10.051020    8.453865    6.631444
  Au     8.182857   10.549972    6.491465
  Au     7.966843    8.430450    4.656095
  Au     5.657369    9.244186    6.006392
  Au     7.475939    5.829903    5.198494
  Au     5.137424    6.496080    6.576824
  Au     4.410467    8.493217    8.377623
  Au     6.297945   10.535470    8.488475
  Mn     7.420597    7.696756    7.329469

 Multiplicity           Mult            ....    4
 Number of Electrons    NEL             ....  291
 Basis Dimension        Dim             ....  605

ORBITAL ENERGIES
----------------
                 SPIN UP ORBITALS
  NO   OCC          E(Eh)            E(eV)
   0   1.0000    -235.054623     -6396.1615
   1   1.0000     -27.231384      -741.0036
   2   1.0000     -23.278526      -633.4409
   3   1.0000     -23.278148      -633.4306
   4   1.0000     -23.277917      -633.4243
   5   1.0000      -4.129122      -112.3591
   6   1.0000      -4.129095      -112.3584
   7   1.0000      -4.129012      -112.3561
   8   1.0000      -4.128980      -112.3553
   9   1.0000      -4.117834      -112.0520
  10   1.0000      -4.117677      -112.0477
  11   1.0000      -4.116518      -112.0162
  12   1.0000      -4.116412      -112.0133
  13   1.0000      -4.116164      -112.0065
  14   1.0000      -4.116082      -112.0043
  15   1.0000      -4.116056      -112.0036
  16   1.0000      -4.115953      -112.0008
  17   1.0000      -4.115451      -111.9871
  18   1.0000      -4.115129      -111.9783
  19   1.0000      -3.253134       -88.5223
  20   1.0000      -2.318022       -63.0766
  21   1.0000      -2.317988       -63.0757
  22   1.0000      -2.316902       -63.0461
  23   1.0000      -2.316858       -63.0449
  24   1.0000      -2.315744       -63.0146
  25   1.0000      -2.315717       -63.0139
  26   1.0000      -2.314948       -62.9929
  27   1.0000      -2.314909       -62.9919
  28   1.0000      -2.313424       -62.9515
  29   1.0000      -2.313378       -62.9502
  30   1.0000      -2.312119       -62.9160
  31   1.0000      -2.312072       -62.9147
  32   1.0000      -2.306426       -62.7611
  33   1.0000      -2.306165       -62.7539
  34   1.0000      -2.305104       -62.7251
  35   1.0000      -2.304864       -62.7185
  36   1.0000      -2.304424       -62.7066
  37   1.0000      -2.304212       -62.7008
  38   1.0000      -2.303611       -62.6844
  39   1.0000      -2.303440       -62.6798
  40   1.0000      -2.303406       -62.6789
  41   1.0000      -2.303201       -62.6733
  42   1.0000      -2.302885       -62.6647
  43   1.0000      -2.302163       -62.6450
  44   1.0000      -2.302034       -62.6415
  45   1.0000      -2.301929       -62.6387
  46   1.0000      -2.301907       -62.6381
  47   1.0000      -2.301766       -62.6342
  48   1.0000      -2.301610       -62.6300
  49   1.0000      -2.300860       -62.6096
  50   1.0000      -2.300667       -62.6043
  51   1.0000      -2.300387       -62.5967
  52   1.0000      -2.300186       -62.5912
  53   1.0000      -2.300015       -62.5866
  54   1.0000      -2.299836       -62.5817
  55   1.0000      -2.299739       -62.5791
  56   1.0000      -2.299697       -62.5779
  57   1.0000      -2.298884       -62.5558
  58   1.0000      -2.298666       -62.5499
  59   1.0000      -2.298280       -62.5394
  60   1.0000      -2.298172       -62.5364
  61   1.0000      -2.298112       -62.5348
  62   1.0000      -2.110477       -57.4290
  63   1.0000      -2.110418       -57.4274
  64   1.0000      -2.108258       -57.3686
  65   1.0000      -0.440700       -11.9921
  66   1.0000      -0.395297       -10.7566
  67   1.0000      -0.393820       -10.7164
  68   1.0000      -0.389758       -10.6059
  69   1.0000      -0.387697       -10.5498
  70   1.0000      -0.382205       -10.4003
  71   1.0000      -0.380960       -10.3665
  72   1.0000      -0.380156       -10.3446
  73   1.0000      -0.374775       -10.1981
  74   1.0000      -0.373144       -10.1538
  75   1.0000      -0.366195        -9.9647
  76   1.0000      -0.365371        -9.9422
  77   1.0000      -0.364069        -9.9068
  78   1.0000      -0.363802        -9.8996
  79   1.0000      -0.361654        -9.8411
  80   1.0000      -0.361364        -9.8332
  81   1.0000      -0.359111        -9.7719
  82   1.0000      -0.358513        -9.7556
  83   1.0000      -0.357766        -9.7353
  84   1.0000      -0.353287        -9.6134
  85   1.0000      -0.350473        -9.5369
  86   1.0000      -0.346500        -9.4287
  87   1.0000      -0.345716        -9.4074
  88   1.0000      -0.345642        -9.4054
  89   1.0000      -0.345406        -9.3990
  90   1.0000      -0.343590        -9.3496
  91   1.0000      -0.342954        -9.3323
  92   1.0000      -0.332469        -9.0469
  93   1.0000      -0.331128        -9.0105
  94   1.0000      -0.328264        -8.9325
  95   1.0000      -0.328053        -8.9268
  96   1.0000      -0.324903        -8.8411
  97   1.0000      -0.323213        -8.7951
  98   1.0000      -0.322583        -8.7779
  99   1.0000      -0.322058        -8.7637
 100   1.0000      -0.315334        -8.5807
 101   1.0000      -0.311880        -8.4867
 102   1.0000      -0.310571        -8.4511
 103   1.0000      -0.310108        -8.4385
 104   1.0000      -0.304232        -8.2786
 105   1.0000      -0.303083        -8.2473
 106   1.0000      -0.300466        -8.1761
 107   1.0000      -0.300415        -8.1747
 108   1.0000      -0.297595        -8.0980
 109   1.0000      -0.289004        -7.8642
 110   1.0000      -0.287446        -7.8218
 111   1.0000      -0.284758        -7.7487
 112   1.0000      -0.282269        -7.6809
 113   1.0000      -0.281695        -7.6653
 114   1.0000      -0.281407        -7.6575
 115   1.0000      -0.278009        -7.5650
 116   1.0000      -0.277201        -7.5430
 117   1.0000      -0.276310        -7.5188
 118   1.0000      -0.275434        -7.4949
 119   1.0000      -0.274970        -7.4823
 120   1.0000      -0.273408        -7.4398
 121   1.0000      -0.273141        -7.4325
 122   1.0000      -0.271898        -7.3987
 123   1.0000      -0.271171        -7.3789
 124   1.0000      -0.267984        -7.2922
 125   1.0000      -0.267938        -7.2910
 126   1.0000      -0.266955        -7.2642
 127   1.0000      -0.266263        -7.2454
 128   1.0000      -0.265133        -7.2146
 129   1.0000      -0.264839        -7.2066
 130   1.0000      -0.262769        -7.1503
 131   1.0000      -0.261874        -7.1260
 132   1.0000      -0.261344        -7.1115
 133   1.0000      -0.258868        -7.0442
 134   1.0000      -0.257465        -7.0060
 135   1.0000      -0.255816        -6.9611
 136   1.0000      -0.253724        -6.9042
 137   1.0000      -0.253110        -6.8875
 138   1.0000      -0.251972        -6.8565
 139   1.0000      -0.251651        -6.8478
 140   1.0000      -0.249535        -6.7902
 141   1.0000      -0.248885        -6.7725
 142   1.0000      -0.247566        -6.7366
 143   1.0000      -0.238316        -6.4849
 144   1.0000      -0.209669        -5.7054
 145   1.0000      -0.208852        -5.6831
 146   1.0000      -0.203452        -5.5362
 147   0.0000      -0.191710        -5.2167
 148   0.0000      -0.188244        -5.1224
 149   0.0000      -0.130625        -3.5545
 150   0.0000      -0.119898        -3.2626
 151   0.0000      -0.119517        -3.2522

                 SPIN DOWN ORBITALS
  NO   OCC          E(Eh)            E(eV)
   0   1.0000    -235.053642     -6396.1348
   1   1.0000     -27.143422      -738.6101
   2   1.0000     -23.211755      -631.6240
   3   1.0000     -23.210982      -631.6029
   4   1.0000     -23.209483      -631.5622
   5   1.0000      -4.129284      -112.3635
   6   1.0000      -4.129256      -112.3628
   7   1.0000      -4.129177      -112.3606
   8   1.0000      -4.129142      -112.3597
   9   1.0000      -4.118412      -112.0677
  10   1.0000      -4.118221      -112.0625
  11   1.0000      -4.116980      -112.0287
  12   1.0000      -4.116872      -112.0258
  13   1.0000      -4.116801      -112.0238
  14   1.0000      -4.116667      -112.0202
  15   1.0000      -4.116626      -112.0191
  16   1.0000      -4.116519      -112.0162
  17   1.0000      -4.116370      -112.0121
  18   1.0000      -4.116053      -112.0035
  19   1.0000      -3.043347       -82.8137
  20   1.0000      -2.317582       -63.0646
  21   1.0000      -2.317562       -63.0641
  22   1.0000      -2.316164       -63.0260
  23   1.0000      -2.316126       -63.0250
  24   1.0000      -2.315800       -63.0161
  25   1.0000      -2.315768       -63.0153
  26   1.0000      -2.315253       -63.0012
  27   1.0000      -2.315208       -63.0000
  28   1.0000      -2.313589       -62.9560
  29   1.0000      -2.313538       -62.9546
  30   1.0000      -2.312286       -62.9205
  31   1.0000      -2.312231       -62.9190
  32   1.0000      -2.306942       -62.7751
  33   1.0000      -2.306744       -62.7697
  34   1.0000      -2.305585       -62.7382
  35   1.0000      -2.305410       -62.7334
  36   1.0000      -2.305032       -62.7231
  37   1.0000      -2.304475       -62.7080
  38   1.0000      -2.304338       -62.7042
  39   1.0000      -2.304060       -62.6967
  40   1.0000      -2.303997       -62.6949
  41   1.0000      -2.303951       -62.6937
  42   1.0000      -2.303902       -62.6924
  43   1.0000      -2.303512       -62.6817
  44   1.0000      -2.302806       -62.6625
  45   1.0000      -2.302648       -62.6582
  46   1.0000      -2.302476       -62.6536
  47   1.0000      -2.302456       -62.6530
  48   1.0000      -2.302242       -62.6472
  49   1.0000      -2.301973       -62.6399
  50   1.0000      -2.301313       -62.6219
  51   1.0000      -2.301221       -62.6194
  52   1.0000      -2.300823       -62.6086
  53   1.0000      -2.300757       -62.6068
  54   1.0000      -2.300743       -62.6064
  55   1.0000      -2.300262       -62.5933
  56   1.0000      -2.300120       -62.5894
  57   1.0000      -2.299543       -62.5737
  58   1.0000      -2.299174       -62.5637
  59   1.0000      -2.298807       -62.5537
  60   1.0000      -2.298608       -62.5483
  61   1.0000      -2.298502       -62.5454
  62   1.0000      -1.903367       -51.7932
  63   1.0000      -1.901846       -51.7519
  64   1.0000      -1.898469       -51.6600
  65   1.0000      -0.435883       -11.8610
  66   1.0000      -0.395781       -10.7697
  67   1.0000      -0.391715       -10.6591
  68   1.0000      -0.390623       -10.6294
  69   1.0000      -0.377998       -10.2858
  70   1.0000      -0.375020       -10.2048
  71   1.0000      -0.373188       -10.1550
  72   1.0000      -0.372500       -10.1362
  73   1.0000      -0.372234       -10.1290
  74   1.0000      -0.368216       -10.0197
  75   1.0000      -0.367284        -9.9943
  76   1.0000      -0.365961        -9.9583
  77   1.0000      -0.364809        -9.9270
  78   1.0000      -0.363951        -9.9036
  79   1.0000      -0.362834        -9.8732
  80   1.0000      -0.361068        -9.8252
  81   1.0000      -0.359876        -9.7927
  82   1.0000      -0.359011        -9.7692
  83   1.0000      -0.356474        -9.7002
  84   1.0000      -0.354285        -9.6406
  85   1.0000      -0.351938        -9.5767
  86   1.0000      -0.348010        -9.4698
  87   1.0000      -0.346099        -9.4178
  88   1.0000      -0.345926        -9.4131
  89   1.0000      -0.345191        -9.3931
  90   1.0000      -0.340694        -9.2708
  91   1.0000      -0.334516        -9.1026
  92   1.0000      -0.333694        -9.0803
  93   1.0000      -0.329639        -8.9699
  94   1.0000      -0.329435        -8.9644
  95   1.0000      -0.325629        -8.8608
  96   1.0000      -0.323330        -8.7983
  97   1.0000      -0.320997        -8.7348
  98   1.0000      -0.320953        -8.7336
  99   1.0000      -0.319205        -8.6860
 100   1.0000      -0.315402        -8.5825
 101   1.0000      -0.308025        -8.3818
 102   1.0000      -0.304644        -8.2898
 103   1.0000      -0.304552        -8.2873
 104   1.0000      -0.303604        -8.2615
 105   1.0000      -0.302260        -8.2249
 106   1.0000      -0.301500        -8.2042
 107   1.0000      -0.293382        -7.9833
 108   1.0000      -0.289476        -7.8770
 109   1.0000      -0.289005        -7.8642
 110   1.0000      -0.288215        -7.8427
 111   1.0000      -0.285913        -7.7801
 112   1.0000      -0.281981        -7.6731
 113   1.0000      -0.281004        -7.6465
 114   1.0000      -0.279149        -7.5960
 115   1.0000      -0.278599        -7.5811
 116   1.0000      -0.277144        -7.5415
 117   1.0000      -0.275785        -7.5045
 118   1.0000      -0.275087        -7.4855
 119   1.0000      -0.273284        -7.4364
 120   1.0000      -0.272356        -7.4112
 121   1.0000      -0.272020        -7.4020
 122   1.0000      -0.271463        -7.3869
 123   1.0000      -0.270317        -7.3557
 124   1.0000      -0.267582        -7.2813
 125   1.0000      -0.265267        -7.2183
 126   1.0000      -0.265238        -7.2175
 127   1.0000      -0.265155        -7.2152
 128   1.0000      -0.260633        -7.0922
 129   1.0000      -0.259573        -7.0633
 130   1.0000      -0.258054        -7.0220
 131   1.0000      -0.254585        -6.9276
 132   1.0000      -0.254179        -6.9166
 133   1.0000      -0.252947        -6.8830
 134   1.0000      -0.252685        -6.8759
 135   1.0000      -0.251294        -6.8381
 136   1.0000      -0.250602        -6.8192
 137   1.0000      -0.250469        -6.8156
 138   1.0000      -0.240127        -6.5342
 139   1.0000      -0.218413        -5.9433
 140   1.0000      -0.216222        -5.8837
 141   1.0000      -0.212701        -5.7879
 142   1.0000      -0.210539        -5.7291
 143   1.0000      -0.202827        -5.5192
 144   0.0000      -0.126514        -3.4426
 145   0.0000      -0.125321        -3.4102
 146   0.0000      -0.124867        -3.3978
 147   0.0000      -0.122655        -3.3376
 148   0.0000      -0.120077        -3.2675

MULLIKEN ATOMIC CHARGES AND SPIN POPULATIONS
--------------------------------------------
   0 Au:    0.122092   -0.025673
   1 Au:    0.096894   -0.062773
   2 Au:    0.205256   -0.211653
   3 Au:    0.202512   -0.209431
   4 Au:    0.191030   -0.020471
   5 Au:    0.215006   -0.034170
   6 Au:    0.214291   -0.039486
   7 Au:    0.191124   -0.023252
   8 Au:    0.213913   -0.037668
   9 Au:    0.203100   -0.209494
  10 Au:    0.214612   -0.033051
  11 Au:    0.204966   -0.211233
  12 Au:    0.121432   -0.026679
  13 Au:    0.098091   -0.057323
  14 Mn:   -2.494318    4.202357
Sum of atomic charges         :   -0.0000000

LOEWDIN ATOMIC CHARGES AND SPIN POPULATIONS
-------------------------------------------
   0 Au:    0.014218   -0.076108
   1 Au:    0.008038   -0.080103
   2 Au:    0.055224   -0.121501
   3 Au:    0.053174   -0.120745
   4 Au:    0.023691   -0.064139
   5 Au:    0.047312   -0.068854
   6 Au:    0.048290   -0.071780
   7 Au:    0.024756   -0.066999
   8 Au:    0.048035   -0.070929
   9 Au:    0.053489   -0.120643
  10 Au:    0.047075   -0.068364
  11 Au:    0.054918   -0.121214
  12 Au:    0.014096   -0.076415
  13 Au:    0.007119   -0.076180
  14 Mn:   -0.499437    4.203974

  Mayer bond orders larger than 0.100000
B(  0-Au,  1-Au) :   0.2460 B(  0-Au,  2-Au) :   0.2445 B(  0-Au,  3-Au) :   0.2498
B(  0-Au, 12-Au) :   0.1251 B(  0-Au, 13-Au) :   0.2448 B(  0-Au, 14-Mn) :   0.2807
B(  1-Au,  2-Au) :   0.1758 B(  1-Au,  4-Au) :   0.2962 B(  1-Au, 11-Au) :   0.1748
B(  1-Au, 12-Au) :   0.2443 B(  1-Au, 14-Mn) :   0.2693 B(  2-Au,  3-Au) :   0.1567
B(  2-Au,  4-Au) :   0.1575 B(  2-Au,  5-Au) :   0.1988 B(  2-Au, 14-Mn) :   0.4849
B(  3-Au,  6-Au) :   0.1966 B(  3-Au,  7-Au) :   0.1613 B(  3-Au, 13-Au) :   0.1806
B(  3-Au, 14-Mn) :   0.4800 B(  4-Au,  5-Au) :   0.2037 B(  4-Au, 10-Au) :   0.2044
B(  4-Au, 11-Au) :   0.1584 B(  4-Au, 14-Mn) :   0.3077 B(  5-Au,  6-Au) :   0.3048
B(  5-Au, 10-Au) :   0.1335 B(  5-Au, 14-Mn) :   0.4193 B(  6-Au,  7-Au) :   0.2027
B(  6-Au,  8-Au) :   0.1331 B(  6-Au, 14-Mn) :   0.4230 B(  7-Au,  8-Au) :   0.2027
B(  7-Au,  9-Au) :   0.1622 B(  7-Au, 13-Au) :   0.2932 B(  7-Au, 14-Mn) :   0.3061
B(  8-Au,  9-Au) :   0.1962 B(  8-Au, 10-Au) :   0.3052 B(  8-Au, 14-Mn) :   0.4225
B(  9-Au, 11-Au) :   0.1568 B(  9-Au, 12-Au) :   0.2498 B(  9-Au, 13-Au) :   0.1776
B(  9-Au, 14-Mn) :   0.4811 B( 10-Au, 11-Au) :   0.1989 B( 10-Au, 14-Mn) :   0.4180
B( 11-Au, 12-Au) :   0.2461 B( 11-Au, 14-Mn) :   0.4844 B( 12-Au, 13-Au) :   0.2453
B( 12-Au, 14-Mn) :   0.2821 B( 13-Au, 14-Mn) :   0.2633

FINAL SINGLE POINT ENERGY     -3052.868637765902

DIPOLE MOMENT
-------------
                                X             Y             Z
Electronic contribution:     -7.62452       3.28638       8.02212
Nuclear contribution   :      7.66127      -3.29950      -8.05919
                        -----------------------------------------
Total Dipole Moment    :      0.03675      -0.01312      -0.03706
                        -----------------------------------------
Magnitude (a.u.)       :      0.05382
Magnitude (Debye)      :      0.13680

Rotational constants in cm-1:     0.001126     0.001115     0.000955
Rotational constants in MHz :    33.753027    33.433112    28.617638

                             ****ORCA TERMINATED NORMALLY****
TOTAL RUN TIME: 0 days 0 hours 13 minutes 4 seconds 12 msec
