                         Program Version 5.0.3 -  RELEASE  -
|  1> %pal nprocs 16 end
|  2>
|  3> !PBE def2-TZVP OPT UNO
|  4> !SLOWCONV
|  5>
|  6> %geom
|  7>   maxiter 200
|  8> end
|  9>
| 10> *xyzfile 0 5 5-4.xyz
| 11>
| 12>                          ****END OF INPUT****
 Total Charge           Charge          ....    0
 Multiplicity           Mult            ....    5
 Number of Electrons    NEL             ....  310
FINAL SINGLE POINT ENERGY     -3188.219707077984
                    ***********************HURRAY********************

CARTESIAN COORDINATES (ANGSTROEM)
---------------------------------
  Au     9.221691    5.306721    7.100661
  Au     9.005236    8.083144    6.700837
  Au     8.160101   10.707828    6.928380
  Au     6.225011    8.862416    6.221877
  Au     7.141192    6.286626    5.627320
  Au     4.701176    6.492398    6.972627
  Au     6.521314    4.642782    7.871208
  Au     9.335270    9.551127    9.227715
  Au     8.583815    4.904344    9.762821
  Au    10.280457    6.991875    9.051241
  Au     5.507390    8.314774   10.806060
  Au     6.027765    5.659416   10.453148
  Au     8.178850    7.570868   10.833400
  Au     4.366803    8.845291    8.309435
  Au     6.650862   10.148888    9.148361
  Mn     6.950512    7.354204    8.431494

 Multiplicity           Mult            ....    5
 Number of Electrons    NEL             ....  310
 Basis Dimension        Dim             ....  645

ORBITAL ENERGIES
----------------
                 SPIN UP ORBITALS
  NO   OCC          E(Eh)            E(eV)
   0   1.0000    -234.209552     -6373.1659
   1   1.0000     -26.901802      -732.0352
   2   1.0000     -23.050756      -627.2430
   3   1.0000     -23.050234      -627.2287
   4   1.0000     -23.049451      -627.2075
   5   1.0000      -4.041622      -109.9781
   6   1.0000      -4.037645      -109.8699
   7   1.0000      -4.035775      -109.8190
   8   1.0000      -4.032205      -109.7219
   9   1.0000      -4.030821      -109.6842
  10   1.0000      -4.030449      -109.6741
  11   1.0000      -4.028550      -109.6224
  12   1.0000      -4.028197      -109.6128
  13   1.0000      -4.028150      -109.6115
  14   1.0000      -4.027147      -109.5843
  15   1.0000      -4.026338      -109.5622
  16   1.0000      -4.025975      -109.5523
  17   1.0000      -4.025463      -109.5384
  18   1.0000      -4.025419      -109.5372
  19   1.0000      -4.024657      -109.5165
  20   1.0000      -3.114349       -84.7457
  21   1.0000      -2.256502       -61.4025
  22   1.0000      -2.254811       -61.3565
  23   1.0000      -2.252414       -61.2913
  24   1.0000      -2.252344       -61.2894
  25   1.0000      -2.251164       -61.2573
  26   1.0000      -2.250775       -61.2467
  27   1.0000      -2.248811       -61.1933
  28   1.0000      -2.248348       -61.1807
  29   1.0000      -2.248302       -61.1794
  30   1.0000      -2.247377       -61.1542
  31   1.0000      -2.247258       -61.1510
  32   1.0000      -2.245869       -61.1132
  33   1.0000      -2.245557       -61.1047
  34   1.0000      -2.244462       -61.0749
  35   1.0000      -2.244212       -61.0681
  36   1.0000      -2.244098       -61.0650
  37   1.0000      -2.243038       -61.0362
  38   1.0000      -2.242920       -61.0330
  39   1.0000      -2.242711       -61.0273
  40   1.0000      -2.242627       -61.0250
  41   1.0000      -2.242132       -61.0115
  42   1.0000      -2.241712       -61.0001
  43   1.0000      -2.241564       -60.9961
  44   1.0000      -2.241238       -60.9872
  45   1.0000      -2.241136       -60.9844
  46   1.0000      -2.240867       -60.9771
  47   1.0000      -2.240686       -60.9722
  48   1.0000      -2.240341       -60.9628
  49   1.0000      -2.239454       -60.9386
  50   1.0000      -2.239164       -60.9307
  51   1.0000      -2.238960       -60.9252
  52   1.0000      -2.238751       -60.9195
  53   1.0000      -2.238281       -60.9067
  54   1.0000      -2.238068       -60.9009
  55   1.0000      -2.238034       -60.9000
  56   1.0000      -2.237799       -60.8936
  57   1.0000      -2.237713       -60.8913
  58   1.0000      -2.237648       -60.8895
  59   1.0000      -2.237476       -60.8848
  60   1.0000      -2.237352       -60.8815
  61   1.0000      -2.237138       -60.8756
  62   1.0000      -2.236244       -60.8513
  63   1.0000      -2.235924       -60.8426
  64   1.0000      -2.235552       -60.8325
  65   1.0000      -2.234867       -60.8138
  66   1.0000      -2.018145       -54.9165
  67   1.0000      -2.017009       -54.8856
  68   1.0000      -2.015944       -54.8566
  69   1.0000      -0.435838       -11.8598
  70   1.0000      -0.392126       -10.6703
  71   1.0000      -0.391686       -10.6583
  72   1.0000      -0.389402       -10.5962
  73   1.0000      -0.377141       -10.2625
  74   1.0000      -0.375992       -10.2313
  75   1.0000      -0.374770       -10.1980
  76   1.0000      -0.372006       -10.1228
  77   1.0000      -0.369497       -10.0545
  78   1.0000      -0.364788        -9.9264
  79   1.0000      -0.360834        -9.8188
  80   1.0000      -0.360583        -9.8120
  81   1.0000      -0.357404        -9.7255
  82   1.0000      -0.356112        -9.6903
  83   1.0000      -0.354392        -9.6435
  84   1.0000      -0.353790        -9.6271
  85   1.0000      -0.350539        -9.5387
  86   1.0000      -0.350235        -9.5304
  87   1.0000      -0.347941        -9.4679
  88   1.0000      -0.345943        -9.4136
  89   1.0000      -0.343922        -9.3586
  90   1.0000      -0.343246        -9.3402
  91   1.0000      -0.341898        -9.3035
  92   1.0000      -0.340913        -9.2767
  93   1.0000      -0.338067        -9.1993
  94   1.0000      -0.334675        -9.1070
  95   1.0000      -0.333908        -9.0861
  96   1.0000      -0.331358        -9.0167
  97   1.0000      -0.329955        -8.9785
  98   1.0000      -0.327987        -8.9250
  99   1.0000      -0.327181        -8.9030
 100   1.0000      -0.320605        -8.7241
 101   1.0000      -0.318420        -8.6647
 102   1.0000      -0.317382        -8.6364
 103   1.0000      -0.314834        -8.5671
 104   1.0000      -0.312222        -8.4960
 105   1.0000      -0.308131        -8.3847
 106   1.0000      -0.305129        -8.3030
 107   1.0000      -0.304470        -8.2850
 108   1.0000      -0.301285        -8.1984
 109   1.0000      -0.300174        -8.1682
 110   1.0000      -0.295235        -8.0337
 111   1.0000      -0.292317        -7.9544
 112   1.0000      -0.290091        -7.8938
 113   1.0000      -0.288444        -7.8490
 114   1.0000      -0.285558        -7.7704
 115   1.0000      -0.283175        -7.7056
 116   1.0000      -0.280574        -7.6348
 117   1.0000      -0.279120        -7.5952
 118   1.0000      -0.278540        -7.5794
 119   1.0000      -0.277947        -7.5633
 120   1.0000      -0.275785        -7.5045
 121   1.0000      -0.274279        -7.4635
 122   1.0000      -0.272389        -7.4121
 123   1.0000      -0.272255        -7.4084
 124   1.0000      -0.271041        -7.3754
 125   1.0000      -0.269715        -7.3393
 126   1.0000      -0.268698        -7.3116
 127   1.0000      -0.268026        -7.2934
 128   1.0000      -0.266998        -7.2654
 129   1.0000      -0.265657        -7.2289
 130   1.0000      -0.263923        -7.1817
 131   1.0000      -0.263500        -7.1702
 132   1.0000      -0.260584        -7.0908
 133   1.0000      -0.260181        -7.0799
 134   1.0000      -0.259305        -7.0560
 135   1.0000      -0.258588        -7.0365
 136   1.0000      -0.256993        -6.9931
 137   1.0000      -0.255693        -6.9578
 138   1.0000      -0.254601        -6.9280
 139   1.0000      -0.252920        -6.8823
 140   1.0000      -0.251562        -6.8454
 141   1.0000      -0.251197        -6.8354
 142   1.0000      -0.250798        -6.8246
 143   1.0000      -0.249791        -6.7972
 144   1.0000      -0.249549        -6.7906
 145   1.0000      -0.248304        -6.7567
 146   1.0000      -0.247164        -6.7257
 147   1.0000      -0.245820        -6.6891
 148   1.0000      -0.245546        -6.6817
 149   1.0000      -0.243262        -6.6195
 150   1.0000      -0.241717        -6.5774
 151   1.0000      -0.239984        -6.5303
 152   1.0000      -0.233147        -6.3443
 153   1.0000      -0.219796        -5.9809
 154   1.0000      -0.210594        -5.7306
 155   1.0000      -0.209711        -5.7065
 156   1.0000      -0.202306        -5.5050
 157   0.0000      -0.186291        -5.0692
 158   0.0000      -0.154460        -4.2031
 159   0.0000      -0.135552        -3.6886
 160   0.0000      -0.133245        -3.6258
 161   0.0000      -0.126622        -3.4456

                 SPIN DOWN ORBITALS
  NO   OCC          E(Eh)            E(eV)
   0   1.0000    -234.208851     -6373.1468
   1   1.0000     -26.833607      -730.1796
   2   1.0000     -22.999144      -625.8385
   3   1.0000     -22.998110      -625.8104
   4   1.0000     -22.997881      -625.8042
   5   1.0000      -4.041030      -109.9620
   6   1.0000      -4.037315      -109.8609
   7   1.0000      -4.035414      -109.8092
   8   1.0000      -4.031622      -109.7060
   9   1.0000      -4.030545      -109.6767
  10   1.0000      -4.030540      -109.6766
  11   1.0000      -4.028488      -109.6207
  12   1.0000      -4.027907      -109.6049
  13   1.0000      -4.027877      -109.6041
  14   1.0000      -4.027499      -109.5938
  15   1.0000      -4.026595      -109.5692
  16   1.0000      -4.026369      -109.5631
  17   1.0000      -4.025988      -109.5527
  18   1.0000      -4.025552      -109.5408
  19   1.0000      -4.024558      -109.5138
  20   1.0000      -2.946626       -80.1818
  21   1.0000      -2.255851       -61.3848
  22   1.0000      -2.254021       -61.3350
  23   1.0000      -2.251968       -61.2792
  24   1.0000      -2.251857       -61.2762
  25   1.0000      -2.250529       -61.2400
  26   1.0000      -2.250332       -61.2347
  27   1.0000      -2.248665       -61.1893
  28   1.0000      -2.248349       -61.1807
  29   1.0000      -2.247923       -61.1691
  30   1.0000      -2.247015       -61.1444
  31   1.0000      -2.246927       -61.1420
  32   1.0000      -2.245734       -61.1095
  33   1.0000      -2.245298       -61.0977
  34   1.0000      -2.244442       -61.0744
  35   1.0000      -2.243898       -61.0596
  36   1.0000      -2.243742       -61.0553
  37   1.0000      -2.242759       -61.0286
  38   1.0000      -2.242689       -61.0267
  39   1.0000      -2.242606       -61.0244
  40   1.0000      -2.242375       -61.0181
  41   1.0000      -2.241954       -61.0067
  42   1.0000      -2.241608       -60.9973
  43   1.0000      -2.241407       -60.9918
  44   1.0000      -2.241151       -60.9848
  45   1.0000      -2.240916       -60.9784
  46   1.0000      -2.240829       -60.9761
  47   1.0000      -2.240729       -60.9733
  48   1.0000      -2.240510       -60.9674
  49   1.0000      -2.240012       -60.9538
  50   1.0000      -2.239399       -60.9371
  51   1.0000      -2.239212       -60.9321
  52   1.0000      -2.239015       -60.9267
  53   1.0000      -2.238433       -60.9108
  54   1.0000      -2.238306       -60.9074
  55   1.0000      -2.238091       -60.9016
  56   1.0000      -2.238037       -60.9001
  57   1.0000      -2.238003       -60.8992
  58   1.0000      -2.237898       -60.8963
  59   1.0000      -2.237524       -60.8861
  60   1.0000      -2.237421       -60.8833
  61   1.0000      -2.237136       -60.8756
  62   1.0000      -2.236554       -60.8597
  63   1.0000      -2.236351       -60.8542
  64   1.0000      -2.235523       -60.8317
  65   1.0000      -2.234887       -60.8144
  66   1.0000      -1.853623       -50.4396
  67   1.0000      -1.852203       -50.4010
  68   1.0000      -1.851094       -50.3708
  69   1.0000      -0.430062       -11.7026
  70   1.0000      -0.391301       -10.6478
  71   1.0000      -0.391159       -10.6440
  72   1.0000      -0.387667       -10.5489
  73   1.0000      -0.373365       -10.1598
  74   1.0000      -0.371058       -10.0970
  75   1.0000      -0.370071       -10.0702
  76   1.0000      -0.367808       -10.0086
  77   1.0000      -0.366171        -9.9640
  78   1.0000      -0.363078        -9.8798
  79   1.0000      -0.360690        -9.8149
  80   1.0000      -0.359844        -9.7918
  81   1.0000      -0.356649        -9.7049
  82   1.0000      -0.354817        -9.6551
  83   1.0000      -0.353839        -9.6284
  84   1.0000      -0.353491        -9.6190
  85   1.0000      -0.350242        -9.5306
  86   1.0000      -0.349438        -9.5087
  87   1.0000      -0.347169        -9.4470
  88   1.0000      -0.345209        -9.3936
  89   1.0000      -0.343213        -9.3393
  90   1.0000      -0.341694        -9.2980
  91   1.0000      -0.341138        -9.2828
  92   1.0000      -0.338644        -9.2150
  93   1.0000      -0.336702        -9.1621
  94   1.0000      -0.334054        -9.0901
  95   1.0000      -0.332613        -9.0509
  96   1.0000      -0.329703        -8.9717
  97   1.0000      -0.327374        -8.9083
  98   1.0000      -0.326358        -8.8807
  99   1.0000      -0.326075        -8.8729
 100   1.0000      -0.320433        -8.7194
 101   1.0000      -0.315875        -8.5954
 102   1.0000      -0.313514        -8.5312
 103   1.0000      -0.312134        -8.4936
 104   1.0000      -0.310338        -8.4447
 105   1.0000      -0.304444        -8.2844
 106   1.0000      -0.301902        -8.2152
 107   1.0000      -0.299406        -8.1472
 108   1.0000      -0.298310        -8.1174
 109   1.0000      -0.295667        -8.0455
 110   1.0000      -0.291069        -7.9204
 111   1.0000      -0.290418        -7.9027
 112   1.0000      -0.289286        -7.8719
 113   1.0000      -0.285743        -7.7755
 114   1.0000      -0.283735        -7.7208
 115   1.0000      -0.281921        -7.6715
 116   1.0000      -0.279482        -7.6051
 117   1.0000      -0.278758        -7.5854
 118   1.0000      -0.277450        -7.5498
 119   1.0000      -0.275293        -7.4911
 120   1.0000      -0.275056        -7.4847
 121   1.0000      -0.273454        -7.4411
 122   1.0000      -0.272129        -7.4050
 123   1.0000      -0.271470        -7.3871
 124   1.0000      -0.270736        -7.3671
 125   1.0000      -0.269204        -7.3254
 126   1.0000      -0.268660        -7.3106
 127   1.0000      -0.267070        -7.2673
 128   1.0000      -0.265743        -7.2312
 129   1.0000      -0.264035        -7.1848
 130   1.0000      -0.262404        -7.1404
 131   1.0000      -0.261888        -7.1263
 132   1.0000      -0.260261        -7.0821
 133   1.0000      -0.258593        -7.0367
 134   1.0000      -0.257333        -7.0024
 135   1.0000      -0.255515        -6.9529
 136   1.0000      -0.254373        -6.9218
 137   1.0000      -0.252197        -6.8626
 138   1.0000      -0.251900        -6.8546
 139   1.0000      -0.249835        -6.7984
 140   1.0000      -0.248770        -6.7694
 141   1.0000      -0.247779        -6.7424
 142   1.0000      -0.246791        -6.7155
 143   1.0000      -0.246217        -6.6999
 144   1.0000      -0.244597        -6.6558
 145   1.0000      -0.242185        -6.5902
 146   1.0000      -0.240467        -6.5434
 147   1.0000      -0.233798        -6.3620
 148   1.0000      -0.226319        -6.1584
 149   1.0000      -0.218887        -5.9562
 150   1.0000      -0.216277        -5.8852
 151   1.0000      -0.211982        -5.7683
 152   1.0000      -0.196927        -5.3587
 153   0.0000      -0.152947        -4.1619
 154   0.0000      -0.138418        -3.7665
 155   0.0000      -0.136879        -3.7247
 156   0.0000      -0.134044        -3.6475
 157   0.0000      -0.133224        -3.6252

MULLIKEN ATOMIC CHARGES AND SPIN POPULATIONS
--------------------------------------------
   0 Au:    0.234050    0.033618
   1 Au:   -0.253610   -0.075123
   2 Au:    0.436918    0.005635
   3 Au:    0.055165   -0.018765
   4 Au:    0.210411   -0.039569
   5 Au:    0.295776    0.012796
   6 Au:    0.182044    0.047836
   7 Au:    0.128653    0.002497
   8 Au:    0.168218   -0.013458
   9 Au:    0.164778   -0.023820
  10 Au:    0.294519   -0.004171
  11 Au:    0.257285   -0.047264
  12 Au:    0.097896   -0.078771
  13 Au:    0.287064   -0.013433
  14 Au:   -0.067835    0.005589
  15 Mn:   -2.491333    4.206404
Sum of atomic charges         :   -0.0000000

LOEWDIN ATOMIC CHARGES AND SPIN POPULATIONS
-------------------------------------------
   0 Au:    0.020867    0.000144
   1 Au:   -0.014290   -0.032742
   2 Au:    0.099817   -0.019150
   3 Au:    0.003203    0.002514
   4 Au:    0.036312   -0.015913
   5 Au:    0.072127   -0.022329
   6 Au:    0.016721    0.016807
   7 Au:    0.012717   -0.035257
   8 Au:    0.008819   -0.004920
   9 Au:    0.029105   -0.046171
  10 Au:    0.063666   -0.037008
  11 Au:    0.075128   -0.048416
  12 Au:    0.022527   -0.025960
  13 Au:    0.059486   -0.028060
  14 Au:   -0.035912    0.015667
  15 Mn:   -0.470294    4.280795

  Mayer bond orders larger than 0.100000
B(  0-Au,  1-Au) :   0.2790 B(  0-Au,  4-Au) :   0.2656 B(  0-Au,  6-Au) :   0.2229
B(  0-Au,  8-Au) :   0.2476 B(  0-Au,  9-Au) :   0.2439 B(  0-Au, 15-Mn) :   0.1801
B(  1-Au,  2-Au) :   0.3528 B(  1-Au,  3-Au) :   0.1854 B(  1-Au,  4-Au) :   0.2533
B(  1-Au,  7-Au) :   0.2090 B(  1-Au,  9-Au) :   0.2370 B(  1-Au, 15-Mn) :   0.4467
B(  2-Au,  3-Au) :   0.2896 B(  2-Au,  7-Au) :   0.2067 B(  2-Au, 14-Au) :   0.2938
B(  3-Au,  4-Au) :   0.2127 B(  3-Au,  5-Au) :   0.1585 B(  3-Au, 13-Au) :   0.2157
B(  3-Au, 14-Au) :   0.1452 B(  3-Au, 15-Mn) :   0.4351 B(  4-Au,  5-Au) :   0.1918
B(  4-Au,  6-Au) :   0.1901 B(  4-Au, 15-Mn) :   0.3771 B(  5-Au,  6-Au) :   0.2693
B(  5-Au, 13-Au) :   0.2548 B(  5-Au, 15-Mn) :   0.4029 B(  6-Au,  8-Au) :   0.2240
B(  6-Au, 11-Au) :   0.1744 B(  6-Au, 15-Mn) :   0.4036 B(  7-Au,  9-Au) :   0.3225
B(  7-Au, 12-Au) :   0.2180 B(  7-Au, 14-Au) :   0.3014 B(  7-Au, 15-Mn) :   0.2222
B(  8-Au,  9-Au) :   0.2648 B(  8-Au, 11-Au) :   0.2836 B(  8-Au, 12-Au) :   0.1826
B(  8-Au, 15-Mn) :   0.2681 B(  9-Au, 12-Au) :   0.2221 B(  9-Au, 15-Mn) :   0.2140
B( 10-Au, 11-Au) :   0.2493 B( 10-Au, 12-Au) :   0.2418 B( 10-Au, 13-Au) :   0.1980
B( 10-Au, 14-Au) :   0.3078 B( 10-Au, 15-Mn) :   0.3282 B( 11-Au, 12-Au) :   0.1645
B( 11-Au, 15-Mn) :   0.4107 B( 12-Au, 15-Mn) :   0.4990 B( 13-Au, 14-Au) :   0.2551
B( 13-Au, 15-Mn) :   0.3241 B( 14-Au, 15-Mn) :   0.3761

FINAL SINGLE POINT ENERGY     -3188.219716307856

DIPOLE MOMENT
-------------
                                X             Y             Z
Electronic contribution:     13.75459       5.16628      -3.63856
Nuclear contribution   :    -13.76482      -5.00820       3.55085
                        -----------------------------------------
Total Dipole Moment    :     -0.01023       0.15807      -0.08772
                        -----------------------------------------
Magnitude (a.u.)       :      0.18107
Magnitude (Debye)      :      0.46024

Rotational constants in cm-1:     0.001004     0.000914     0.000878
Rotational constants in MHz :    30.113814    27.411631    26.323861

                             ****ORCA TERMINATED NORMALLY****
TOTAL RUN TIME: 0 days 0 hours 5 minutes 0 seconds 204 msec
