                         Program Version 5.0.3 -  RELEASE  -
|  1> !RI-B2PLYP def2-TZVP def2-TZVP/C
|  2> !RIJCOSX VERYSLOWCONV
|  3>
|  4> %scf
|  5>   AutoTRAHIter 200
|  6>   maxiter 400
|  7> end
|  8>
|  9>
| 10> %pal nprocs 6 end
| 11>
| 12> *xyzfile 0 5 pbe.xyz
| 13>
| 14> $new_job
| 15>
| 16> !RI-B2PLYP def2-TZVP def2-TZVP/C
| 17> !RIJCOSX VERYSLOWCONV
| 18>
| 19> %scf
| 20>   AutoTRAHIter 200
| 21>   maxiter 400
| 22> end
| 23>
| 24>
| 25> %pal nprocs 6 end
| 26>
| 27> *xyzfile 0 3 pbe.xyz
| 28>
| 29>
| 30>
| 31>
| 32>
| 33>                          ****END OF INPUT****
 Total Charge           Charge          ....    0
 Multiplicity           Mult            ....    5
 Number of Electrons    NEL             ....  254
MP2 TOTAL ENERGY:    -2890.521704603 Eh
FINAL SINGLE POINT ENERGY     -2890.521704602932

CARTESIAN COORDINATES (ANGSTROEM)
---------------------------------
  Au    11.072205    7.117073   10.352978
  Au     8.272656    6.824324   10.943885
  Au     9.282898    9.353866   10.244418
  Au    11.385967    8.905765    8.128203
  Au    11.516843    6.139168    7.684687
  Au     7.951298    3.218784    8.089383
  Au     8.795914    9.772281    7.526035
  Au     9.099926    5.180438    6.578688
  Au     9.809579    7.703871    5.939516
  Au     9.713223    4.793688    9.486342
  Au     6.845171    8.341793    8.926837
  Au     6.914928    5.650022    8.767788
  Fe     9.182764    7.235901    8.448611

 Multiplicity           Mult            ....    3
 Number of Electrons    NEL             ....  254
 Basis Dimension        Dim             ....  525

ORBITAL ENERGIES
----------------
                 SPIN UP ORBITALS
  NO   OCC          E(Eh)            E(eV)
   0   1.0000    -258.334676     -7029.6439
   1   1.0000     -30.894313      -840.6770
   2   1.0000     -26.605208      -723.9645
   3   1.0000     -26.598996      -723.7955
   4   1.0000     -26.573508      -723.1019
   5   1.0000      -4.406104      -119.8962
   6   1.0000      -4.405361      -119.8760
   7   1.0000      -4.402350      -119.7940
   8   1.0000      -4.402237      -119.7910
   9   1.0000      -4.395987      -119.6209
  10   1.0000      -4.395966      -119.6203
  11   1.0000      -4.395003      -119.5941
  12   1.0000      -4.393086      -119.5419
  13   1.0000      -4.392460      -119.5249
  14   1.0000      -4.389241      -119.4373
  15   1.0000      -4.388569      -119.4190
  16   1.0000      -4.386683      -119.3677
  17   1.0000      -3.905512      -106.2744
  18   1.0000      -2.640433       -71.8498
  19   1.0000      -2.628281       -71.5192
  20   1.0000      -2.573798       -70.0366
  21   1.0000      -2.527846       -68.7862
  22   1.0000      -2.525561       -68.7240
  23   1.0000      -2.524785       -68.7029
  24   1.0000      -2.524051       -68.6829
  25   1.0000      -2.523534       -68.6688
  26   1.0000      -2.522876       -68.6509
  27   1.0000      -2.521982       -68.6266
  28   1.0000      -2.520984       -68.5995
  29   1.0000      -2.519406       -68.5565
  30   1.0000      -2.518957       -68.5443
  31   1.0000      -2.518546       -68.5331
  32   1.0000      -2.517807       -68.5130
  33   1.0000      -2.517383       -68.5015
  34   1.0000      -2.517134       -68.4947
  35   1.0000      -2.516413       -68.4751
  36   1.0000      -2.515659       -68.4546
  37   1.0000      -2.514264       -68.4166
  38   1.0000      -2.512177       -68.3598
  39   1.0000      -2.511878       -68.3517
  40   1.0000      -2.510667       -68.3187
  41   1.0000      -2.510083       -68.3028
  42   1.0000      -2.509997       -68.3005
  43   1.0000      -2.509850       -68.2965
  44   1.0000      -2.509657       -68.2912
  45   1.0000      -2.508479       -68.2592
  46   1.0000      -2.508287       -68.2540
  47   1.0000      -2.507587       -68.2349
  48   1.0000      -2.506109       -68.1947
  49   1.0000      -2.505396       -68.1753
  50   1.0000      -2.504871       -68.1610
  51   1.0000      -2.504512       -68.1512
  52   1.0000      -2.504294       -68.1453
  53   1.0000      -2.503997       -68.1372
  54   1.0000      -2.502795       -68.1045
  55   1.0000      -2.502033       -68.0838
  56   1.0000      -2.501141       -68.0595
  57   1.0000      -0.560643       -15.2559
  58   1.0000      -0.560214       -15.2442
  59   1.0000      -0.538159       -14.6440
  60   1.0000      -0.536859       -14.6087
  61   1.0000      -0.520378       -14.1602
  62   1.0000      -0.502219       -13.6661
  63   1.0000      -0.468762       -12.7557
  64   1.0000      -0.466158       -12.6848
  65   1.0000      -0.461459       -12.5569
  66   1.0000      -0.456023       -12.4090
  67   1.0000      -0.454732       -12.3739
  68   1.0000      -0.451680       -12.2908
  69   1.0000      -0.449901       -12.2424
  70   1.0000      -0.448370       -12.2008
  71   1.0000      -0.445977       -12.1356
  72   1.0000      -0.445819       -12.1314
  73   1.0000      -0.440005       -11.9731
  74   1.0000      -0.439251       -11.9526
  75   1.0000      -0.436546       -11.8790
  76   1.0000      -0.435770       -11.8579
  77   1.0000      -0.434869       -11.8334
  78   1.0000      -0.433104       -11.7854
  79   1.0000      -0.432508       -11.7691
  80   1.0000      -0.428891       -11.6707
  81   1.0000      -0.426331       -11.6011
  82   1.0000      -0.421987       -11.4829
  83   1.0000      -0.417881       -11.3711
  84   1.0000      -0.415940       -11.3183
  85   1.0000      -0.409974       -11.1560
  86   1.0000      -0.409623       -11.1464
  87   1.0000      -0.407576       -11.0907
  88   1.0000      -0.405155       -11.0248
  89   1.0000      -0.395076       -10.7506
  90   1.0000      -0.394497       -10.7348
  91   1.0000      -0.389700       -10.6043
  92   1.0000      -0.387676       -10.5492
  93   1.0000      -0.384962       -10.4753
  94   1.0000      -0.383034       -10.4229
  95   1.0000      -0.380560       -10.3556
  96   1.0000      -0.374818       -10.1993
  97   1.0000      -0.374491       -10.1904
  98   1.0000      -0.372260       -10.1297
  99   1.0000      -0.368880       -10.0377
 100   1.0000      -0.368204       -10.0193
 101   1.0000      -0.366873        -9.9831
 102   1.0000      -0.366491        -9.9727
 103   1.0000      -0.365256        -9.9391
 104   1.0000      -0.364255        -9.9119
 105   1.0000      -0.361359        -9.8331
 106   1.0000      -0.360315        -9.8047
 107   1.0000      -0.358942        -9.7673
 108   1.0000      -0.358457        -9.7541
 109   1.0000      -0.354994        -9.6599
 110   1.0000      -0.353956        -9.6316
 111   1.0000      -0.352200        -9.5839
 112   1.0000      -0.351213        -9.5570
 113   1.0000      -0.345907        -9.4126
 114   1.0000      -0.345529        -9.4023
 115   1.0000      -0.345120        -9.3912
 116   1.0000      -0.341741        -9.2993
 117   1.0000      -0.341266        -9.2863
 118   1.0000      -0.338220        -9.2034
 119   1.0000      -0.337980        -9.1969
 120   1.0000      -0.327674        -8.9165
 121   1.0000      -0.325690        -8.8625
 122   1.0000      -0.320722        -8.7273
 123   1.0000      -0.319236        -8.6868
 124   1.0000      -0.303014        -8.2454
 125   1.0000      -0.271629        -7.3914
 126   1.0000      -0.231767        -6.3067
 127   1.0000      -0.197141        -5.3645
 128   0.0000      -0.112924        -3.0728
 129   0.0000      -0.112059        -3.0493
 130   0.0000      -0.086958        -2.3662
 131   0.0000      -0.073212        -1.9922
 132   0.0000      -0.050660        -1.3785

                 SPIN DOWN ORBITALS
  NO   OCC          E(Eh)            E(eV)
   0   1.0000    -258.332672     -7029.5894
   1   1.0000     -30.802217      -838.1709
   2   1.0000     -26.511733      -721.4209
   3   1.0000     -26.510113      -721.3768
   4   1.0000     -26.503569      -721.1988
   5   1.0000      -4.406348      -119.9028
   6   1.0000      -4.405708      -119.8854
   7   1.0000      -4.403226      -119.8179
   8   1.0000      -4.403129      -119.8152
   9   1.0000      -4.396590      -119.6373
  10   1.0000      -4.396574      -119.6369
  11   1.0000      -4.395824      -119.6164
  12   1.0000      -4.393311      -119.5481
  13   1.0000      -4.392658      -119.5303
  14   1.0000      -4.389804      -119.4527
  15   1.0000      -4.389109      -119.4337
  16   1.0000      -4.387196      -119.3817
  17   1.0000      -3.663533       -99.6898
  18   1.0000      -2.527996       -68.7903
  19   1.0000      -2.525096       -68.7114
  20   1.0000      -2.524640       -68.6990
  21   1.0000      -2.523439       -68.6663
  22   1.0000      -2.522814       -68.6493
  23   1.0000      -2.522653       -68.6449
  24   1.0000      -2.521862       -68.6234
  25   1.0000      -2.521247       -68.6066
  26   1.0000      -2.519974       -68.5720
  27   1.0000      -2.519370       -68.5555
  28   1.0000      -2.519294       -68.5535
  29   1.0000      -2.518334       -68.5274
  30   1.0000      -2.516871       -68.4876
  31   1.0000      -2.516704       -68.4830
  32   1.0000      -2.516176       -68.4686
  33   1.0000      -2.515754       -68.4572
  34   1.0000      -2.513902       -68.4067
  35   1.0000      -2.512353       -68.3646
  36   1.0000      -2.512153       -68.3592
  37   1.0000      -2.510538       -68.3152
  38   1.0000      -2.510352       -68.3102
  39   1.0000      -2.510244       -68.3072
  40   1.0000      -2.510142       -68.3044
  41   1.0000      -2.509681       -68.2919
  42   1.0000      -2.508630       -68.2633
  43   1.0000      -2.507583       -68.2348
  44   1.0000      -2.506905       -68.2163
  45   1.0000      -2.506869       -68.2154
  46   1.0000      -2.506192       -68.1969
  47   1.0000      -2.505975       -68.1910
  48   1.0000      -2.505543       -68.1793
  49   1.0000      -2.505437       -68.1764
  50   1.0000      -2.505063       -68.1662
  51   1.0000      -2.503602       -68.1265
  52   1.0000      -2.502704       -68.1020
  53   1.0000      -2.501746       -68.0760
  54   1.0000      -2.345917       -63.8356
  55   1.0000      -2.335319       -63.5473
  56   1.0000      -2.332786       -63.4783
  57   1.0000      -0.518511       -14.1094
  58   1.0000      -0.477854       -13.0031
  59   1.0000      -0.472750       -12.8642
  60   1.0000      -0.470381       -12.7997
  61   1.0000      -0.466260       -12.6876
  62   1.0000      -0.466023       -12.6811
  63   1.0000      -0.463066       -12.6007
  64   1.0000      -0.460725       -12.5370
  65   1.0000      -0.456506       -12.4222
  66   1.0000      -0.454139       -12.3578
  67   1.0000      -0.451186       -12.2774
  68   1.0000      -0.450764       -12.2659
  69   1.0000      -0.448121       -12.1940
  70   1.0000      -0.447092       -12.1660
  71   1.0000      -0.445730       -12.1289
  72   1.0000      -0.438232       -11.9249
  73   1.0000      -0.436184       -11.8692
  74   1.0000      -0.435916       -11.8619
  75   1.0000      -0.434038       -11.8108
  76   1.0000      -0.432068       -11.7572
  77   1.0000      -0.429674       -11.6920
  78   1.0000      -0.424160       -11.5420
  79   1.0000      -0.419467       -11.4143
  80   1.0000      -0.416239       -11.3265
  81   1.0000      -0.412893       -11.2354
  82   1.0000      -0.411952       -11.2098
  83   1.0000      -0.411325       -11.1927
  84   1.0000      -0.402332       -10.9480
  85   1.0000      -0.400530       -10.8990
  86   1.0000      -0.397227       -10.8091
  87   1.0000      -0.396389       -10.7863
  88   1.0000      -0.390027       -10.6132
  89   1.0000      -0.388470       -10.5708
  90   1.0000      -0.383696       -10.4409
  91   1.0000      -0.382152       -10.3989
  92   1.0000      -0.380673       -10.3586
  93   1.0000      -0.378889       -10.3101
  94   1.0000      -0.375383       -10.2147
  95   1.0000      -0.375169       -10.2089
  96   1.0000      -0.371605       -10.1119
  97   1.0000      -0.369995       -10.0681
  98   1.0000      -0.366728        -9.9792
  99   1.0000      -0.366145        -9.9633
 100   1.0000      -0.364649        -9.9226
 101   1.0000      -0.363315        -9.8863
 102   1.0000      -0.361322        -9.8321
 103   1.0000      -0.359643        -9.7864
 104   1.0000      -0.357477        -9.7274
 105   1.0000      -0.355513        -9.6740
 106   1.0000      -0.354363        -9.6427
 107   1.0000      -0.353621        -9.6225
 108   1.0000      -0.349240        -9.5033
 109   1.0000      -0.348674        -9.4879
 110   1.0000      -0.347607        -9.4589
 111   1.0000      -0.344078        -9.3628
 112   1.0000      -0.343980        -9.3602
 113   1.0000      -0.341003        -9.2792
 114   1.0000      -0.339224        -9.2308
 115   1.0000      -0.330987        -9.0066
 116   1.0000      -0.330578        -8.9955
 117   1.0000      -0.326432        -8.8827
 118   1.0000      -0.323855        -8.8125
 119   1.0000      -0.322887        -8.7862
 120   1.0000      -0.313478        -8.5302
 121   1.0000      -0.293653        -7.9907
 122   1.0000      -0.241105        -6.5608
 123   1.0000      -0.215588        -5.8664
 124   1.0000      -0.212429        -5.7805
 125   1.0000      -0.211101        -5.7443
 126   0.0000      -0.091059        -2.4778
 127   0.0000      -0.079920        -2.1747
 128   0.0000      -0.050707        -1.3798
 129   0.0000      -0.043630        -1.1872
 130   0.0000      -0.042829        -1.1654

MULLIKEN ATOMIC CHARGES AND SPIN POPULATIONS
--------------------------------------------
   0 Au:    0.351500   -0.026559
   1 Au:    0.293749   -0.196542
   2 Au:    0.114835   -0.029751
   3 Au:    0.109056   -0.014232
   4 Au:    0.293002   -0.196058
   5 Au:    0.353479    0.052285
   6 Au:    0.236396   -0.256272
   7 Au:   -0.045426   -0.007430
   8 Au:    0.295289   -0.224925
   9 Au:   -0.030057   -0.278173
  10 Au:    0.295887   -0.223323
  11 Au:   -0.049999    0.005995
  12 Fe:   -2.217713    3.394984
Sum of atomic charges         :   -0.0000000

LOEWDIN ATOMIC CHARGES AND SPIN POPULATIONS
-------------------------------------------
   0 Au:    0.088697   -0.144791
   1 Au:    0.062381   -0.150120
   2 Au:    0.006510   -0.078547
   3 Au:    0.004465   -0.071083
   4 Au:    0.061188   -0.148594
   5 Au:    0.119293    0.007408
   6 Au:    0.046072   -0.212857
   7 Au:   -0.027277   -0.051917
   8 Au:    0.075322   -0.171421
   9 Au:   -0.039087   -0.167483
  10 Au:    0.074395   -0.168229
  11 Au:   -0.029325   -0.045097
  12 Fe:   -0.442634    3.402730

  Mayer bond orders larger than 0.100000
B(  0-Au,  1-Au) :   0.1717 B(  0-Au,  2-Au) :   0.1930 B(  0-Au,  3-Au) :   0.1924
B(  0-Au,  4-Au) :   0.1693 B(  0-Au,  9-Au) :   0.2415 B(  0-Au, 12-Fe) :   0.2771
B(  1-Au,  2-Au) :   0.1711 B(  1-Au,  9-Au) :   0.1295 B(  1-Au, 11-Au) :   0.1643
B(  1-Au, 12-Fe) :   0.5057 B(  2-Au,  6-Au) :   0.2047 B(  2-Au, 12-Fe) :   0.4776
B(  3-Au,  4-Au) :   0.1786 B(  3-Au,  6-Au) :   0.1984 B(  3-Au, 12-Fe) :   0.4762
B(  4-Au,  7-Au) :   0.1609 B(  4-Au,  9-Au) :   0.1312 B(  4-Au, 12-Fe) :   0.5044
B(  5-Au,  7-Au) :   0.3300 B(  5-Au,  9-Au) :   0.3386 B(  5-Au, 11-Au) :   0.3306
B(  6-Au,  8-Au) :   0.1608 B(  6-Au, 10-Au) :   0.1622 B(  6-Au, 12-Fe) :   0.4257
B(  7-Au,  8-Au) :   0.2735 B(  7-Au,  9-Au) :   0.1659 B(  7-Au, 12-Fe) :   0.4560
B(  8-Au, 12-Fe) :   0.4983 B(  9-Au, 11-Au) :   0.1600 B(  9-Au, 12-Fe) :   0.4482
B( 10-Au, 11-Au) :   0.2741 B( 10-Au, 12-Fe) :   0.4981 B( 11-Au, 12-Fe) :   0.4527

MP2 TOTAL ENERGY:    -2890.528581862 Eh
FINAL SINGLE POINT ENERGY     -2890.528581862190

DIPOLE MOMENT
-------------
                                X             Y             Z
Electronic contribution:      1.59003     -12.39545       4.23852
Nuclear contribution   :     -1.48228      12.14439      -4.07619
                        -----------------------------------------
Total Dipole Moment    :      0.10775      -0.25106       0.16233
                        -----------------------------------------
Magnitude (a.u.)       :      0.31779
Magnitude (Debye)      :      0.80777

Rotational constants in cm-1:     0.001661     0.001253     0.001135
Rotational constants in MHz :    49.798106    37.551520    34.016742

                             ****ORCA TERMINATED NORMALLY****
TOTAL RUN TIME: 0 days 1 hours 18 minutes 37 seconds 548 msec
