                         Program Version 5.0.3 -  RELEASE  -
|  1> !R2SCAN def2-TZVP VERYSLOWCONV
|  2> !KDIIS
|  3> %scf
|  4>   AutoTRAHIter 200
|  5>   maxiter 400
|  6> end
|  7>
|  8> %pal nprocs 6 end
|  9>
| 10> *xyzfile 0 5 pbe.xyz
| 11>
| 12> $new_job
| 13>
| 14> !R2SCAN def2-TZVP VERYSLOWCONV
| 15> !KDIIS
| 16> %scf
| 17>   AutoTRAHIter 200
| 18>   maxiter 400
| 19> end
| 20>
| 21>
| 22> %pal nprocs 6 end
| 23>
| 24> *xyzfile 0 3 pbe.xyz
| 25>
| 26>
| 27>
| 28>
| 29>
| 30>                          ****END OF INPUT****
 Total Charge           Charge          ....    0
 Multiplicity           Mult            ....    5
 Number of Electrons    NEL             ....  254
FINAL SINGLE POINT ENERGY     -2893.818188464940

CARTESIAN COORDINATES (ANGSTROEM)
---------------------------------
  Au    11.072205    7.117073   10.352978
  Au     8.272656    6.824324   10.943885
  Au     9.282898    9.353866   10.244418
  Au    11.385967    8.905765    8.128203
  Au    11.516843    6.139168    7.684687
  Au     7.951298    3.218784    8.089383
  Au     8.795914    9.772281    7.526035
  Au     9.099926    5.180438    6.578688
  Au     9.809579    7.703871    5.939516
  Au     9.713223    4.793688    9.486342
  Au     6.845171    8.341793    8.926837
  Au     6.914928    5.650022    8.767788
  Fe     9.182764    7.235901    8.448611

 Multiplicity           Mult            ....    3
 Number of Electrons    NEL             ....  254
 Basis Dimension        Dim             ....  525

ORBITAL ENERGIES
----------------
                 SPIN UP ORBITALS
  NO   OCC          E(Eh)            E(eV)
   0   1.0000    -255.637888     -6956.2606
   1   1.0000     -29.936703      -814.6191
   2   1.0000     -25.774576      -701.3619
   3   1.0000     -25.767335      -701.1648
   4   1.0000     -25.759344      -700.9474
   5   1.0000      -4.123916      -112.2175
   6   1.0000      -4.119855      -112.1070
   7   1.0000      -4.117615      -112.0460
   8   1.0000      -4.117575      -112.0449
   9   1.0000      -4.114867      -111.9712
  10   1.0000      -4.113669      -111.9386
  11   1.0000      -4.113653      -111.9382
  12   1.0000      -4.113202      -111.9259
  13   1.0000      -4.112741      -111.9134
  14   1.0000      -4.108906      -111.8090
  15   1.0000      -4.108465      -111.7970
  16   1.0000      -4.108464      -111.7970
  17   1.0000      -3.514678       -95.6392
  18   1.0000      -2.313779       -62.9611
  19   1.0000      -2.310229       -62.8645
  20   1.0000      -2.307985       -62.8035
  21   1.0000      -2.307892       -62.8009
  22   1.0000      -2.306766       -62.7703
  23   1.0000      -2.306528       -62.7638
  24   1.0000      -2.305583       -62.7381
  25   1.0000      -2.305463       -62.7348
  26   1.0000      -2.305035       -62.7232
  27   1.0000      -2.304439       -62.7070
  28   1.0000      -2.304246       -62.7017
  29   1.0000      -2.302862       -62.6641
  30   1.0000      -2.302720       -62.6602
  31   1.0000      -2.302299       -62.6488
  32   1.0000      -2.302046       -62.6419
  33   1.0000      -2.301685       -62.6320
  34   1.0000      -2.301599       -62.6297
  35   1.0000      -2.300762       -62.6069
  36   1.0000      -2.299808       -62.5810
  37   1.0000      -2.299176       -62.5638
  38   1.0000      -2.298457       -62.5442
  39   1.0000      -2.298304       -62.5400
  40   1.0000      -2.297651       -62.5223
  41   1.0000      -2.296506       -62.4911
  42   1.0000      -2.295959       -62.4762
  43   1.0000      -2.295875       -62.4739
  44   1.0000      -2.295348       -62.4596
  45   1.0000      -2.295222       -62.4562
  46   1.0000      -2.294421       -62.4344
  47   1.0000      -2.294199       -62.4283
  48   1.0000      -2.294087       -62.4253
  49   1.0000      -2.293728       -62.4155
  50   1.0000      -2.293563       -62.4110
  51   1.0000      -2.292394       -62.3792
  52   1.0000      -2.292354       -62.3781
  53   1.0000      -2.291566       -62.3567
  54   1.0000      -2.291394       -62.3520
  55   1.0000      -2.280492       -62.0553
  56   1.0000      -2.262500       -61.5657
  57   1.0000      -0.440055       -11.9745
  58   1.0000      -0.391726       -10.6594
  59   1.0000      -0.389416       -10.5965
  60   1.0000      -0.389151       -10.5893
  61   1.0000      -0.386341       -10.5129
  62   1.0000      -0.385644       -10.4939
  63   1.0000      -0.380471       -10.3531
  64   1.0000      -0.376357       -10.2412
  65   1.0000      -0.367942       -10.0122
  66   1.0000      -0.357305        -9.7228
  67   1.0000      -0.356081        -9.6894
  68   1.0000      -0.355428        -9.6717
  69   1.0000      -0.352093        -9.5809
  70   1.0000      -0.351542        -9.5660
  71   1.0000      -0.349733        -9.5167
  72   1.0000      -0.342280        -9.3139
  73   1.0000      -0.340034        -9.2528
  74   1.0000      -0.339614        -9.2414
  75   1.0000      -0.338464        -9.2101
  76   1.0000      -0.336558        -9.1582
  77   1.0000      -0.336022        -9.1436
  78   1.0000      -0.330911        -9.0045
  79   1.0000      -0.330392        -8.9904
  80   1.0000      -0.329856        -8.9758
  81   1.0000      -0.326301        -8.8791
  82   1.0000      -0.321810        -8.7569
  83   1.0000      -0.319610        -8.6970
  84   1.0000      -0.318064        -8.6550
  85   1.0000      -0.315782        -8.5929
  86   1.0000      -0.310499        -8.4491
  87   1.0000      -0.306792        -8.3482
  88   1.0000      -0.305526        -8.3138
  89   1.0000      -0.304021        -8.2728
  90   1.0000      -0.295767        -8.0482
  91   1.0000      -0.294767        -8.0210
  92   1.0000      -0.294035        -8.0011
  93   1.0000      -0.292087        -7.9481
  94   1.0000      -0.289870        -7.8878
  95   1.0000      -0.288788        -7.8583
  96   1.0000      -0.284109        -7.7310
  97   1.0000      -0.282658        -7.6915
  98   1.0000      -0.280292        -7.6271
  99   1.0000      -0.279208        -7.5976
 100   1.0000      -0.276838        -7.5332
 101   1.0000      -0.274271        -7.4633
 102   1.0000      -0.273649        -7.4464
 103   1.0000      -0.271880        -7.3982
 104   1.0000      -0.271620        -7.3911
 105   1.0000      -0.270631        -7.3642
 106   1.0000      -0.268235        -7.2991
 107   1.0000      -0.265659        -7.2289
 108   1.0000      -0.265597        -7.2273
 109   1.0000      -0.262866        -7.1529
 110   1.0000      -0.262570        -7.1449
 111   1.0000      -0.261113        -7.1053
 112   1.0000      -0.259981        -7.0744
 113   1.0000      -0.258985        -7.0473
 114   1.0000      -0.258089        -7.0230
 115   1.0000      -0.256859        -6.9895
 116   1.0000      -0.255721        -6.9585
 117   1.0000      -0.255301        -6.9471
 118   1.0000      -0.252961        -6.8834
 119   1.0000      -0.252874        -6.8810
 120   1.0000      -0.251599        -6.8463
 121   1.0000      -0.248811        -6.7705
 122   1.0000      -0.245168        -6.6714
 123   1.0000      -0.244609        -6.6561
 124   1.0000      -0.240618        -6.5475
 125   1.0000      -0.235868        -6.4183
 126   1.0000      -0.210654        -5.7322
 127   1.0000      -0.184780        -5.0281
 128   0.0000      -0.174302        -4.7430
 129   0.0000      -0.173006        -4.7077
 130   0.0000      -0.148087        -4.0296
 131   0.0000      -0.132129        -3.5954
 132   0.0000      -0.108158        -2.9431

                 SPIN DOWN ORBITALS
  NO   OCC          E(Eh)            E(eV)
   0   1.0000    -255.636901     -6956.2337
   1   1.0000     -29.859011      -812.5050
   2   1.0000     -25.710829      -699.6272
   3   1.0000     -25.707779      -699.5442
   4   1.0000     -25.704904      -699.4660
   5   1.0000      -4.124068      -112.2216
   6   1.0000      -4.120519      -112.1250
   7   1.0000      -4.118394      -112.0672
   8   1.0000      -4.118362      -112.0663
   9   1.0000      -4.115350      -111.9844
  10   1.0000      -4.113932      -111.9458
  11   1.0000      -4.113925      -111.9456
  12   1.0000      -4.113310      -111.9288
  13   1.0000      -4.112837      -111.9160
  14   1.0000      -4.109392      -111.8222
  15   1.0000      -4.109104      -111.8144
  16   1.0000      -4.108949      -111.8102
  17   1.0000      -3.346735       -91.0693
  18   1.0000      -2.313506       -62.9537
  19   1.0000      -2.309706       -62.8503
  20   1.0000      -2.308467       -62.8166
  21   1.0000      -2.308080       -62.8060
  22   1.0000      -2.306753       -62.7700
  23   1.0000      -2.306719       -62.7690
  24   1.0000      -2.306091       -62.7519
  25   1.0000      -2.305773       -62.7433
  26   1.0000      -2.305133       -62.7258
  27   1.0000      -2.304558       -62.7102
  28   1.0000      -2.303640       -62.6852
  29   1.0000      -2.303432       -62.6796
  30   1.0000      -2.303186       -62.6729
  31   1.0000      -2.303076       -62.6699
  32   1.0000      -2.302840       -62.6635
  33   1.0000      -2.302633       -62.6578
  34   1.0000      -2.301376       -62.6236
  35   1.0000      -2.300761       -62.6069
  36   1.0000      -2.300283       -62.5939
  37   1.0000      -2.298862       -62.5552
  38   1.0000      -2.298647       -62.5494
  39   1.0000      -2.298477       -62.5447
  40   1.0000      -2.297565       -62.5199
  41   1.0000      -2.296632       -62.4945
  42   1.0000      -2.296317       -62.4860
  43   1.0000      -2.296093       -62.4799
  44   1.0000      -2.295530       -62.4645
  45   1.0000      -2.295218       -62.4561
  46   1.0000      -2.295068       -62.4520
  47   1.0000      -2.294838       -62.4457
  48   1.0000      -2.294649       -62.4406
  49   1.0000      -2.294076       -62.4250
  50   1.0000      -2.293249       -62.4025
  51   1.0000      -2.293127       -62.3992
  52   1.0000      -2.292218       -62.3744
  53   1.0000      -2.292097       -62.3711
  54   1.0000      -2.117865       -57.6300
  55   1.0000      -2.114633       -57.5421
  56   1.0000      -2.108596       -57.3778
  57   1.0000      -0.438213       -11.9244
  58   1.0000      -0.391968       -10.6660
  59   1.0000      -0.389032       -10.5861
  60   1.0000      -0.385897       -10.5008
  61   1.0000      -0.377029       -10.2595
  62   1.0000      -0.373494       -10.1633
  63   1.0000      -0.370424       -10.0797
  64   1.0000      -0.368931       -10.0391
  65   1.0000      -0.363429        -9.8894
  66   1.0000      -0.357042        -9.7156
  67   1.0000      -0.356257        -9.6942
  68   1.0000      -0.355148        -9.6641
  69   1.0000      -0.353744        -9.6259
  70   1.0000      -0.351286        -9.5590
  71   1.0000      -0.351146        -9.5552
  72   1.0000      -0.343538        -9.3482
  73   1.0000      -0.340894        -9.2762
  74   1.0000      -0.339747        -9.2450
  75   1.0000      -0.339511        -9.2386
  76   1.0000      -0.337945        -9.1960
  77   1.0000      -0.335109        -9.1188
  78   1.0000      -0.332513        -9.0481
  79   1.0000      -0.329639        -8.9699
  80   1.0000      -0.324394        -8.8272
  81   1.0000      -0.319732        -8.7004
  82   1.0000      -0.318999        -8.6804
  83   1.0000      -0.318192        -8.6584
  84   1.0000      -0.311553        -8.4778
  85   1.0000      -0.308762        -8.4018
  86   1.0000      -0.308246        -8.3878
  87   1.0000      -0.304708        -8.2915
  88   1.0000      -0.299701        -8.1553
  89   1.0000      -0.299398        -8.1470
  90   1.0000      -0.294546        -8.0150
  91   1.0000      -0.293282        -7.9806
  92   1.0000      -0.289989        -7.8910
  93   1.0000      -0.287189        -7.8148
  94   1.0000      -0.286264        -7.7896
  95   1.0000      -0.286034        -7.7834
  96   1.0000      -0.283917        -7.7258
  97   1.0000      -0.282303        -7.6818
  98   1.0000      -0.279270        -7.5993
  99   1.0000      -0.277044        -7.5387
 100   1.0000      -0.276536        -7.5249
 101   1.0000      -0.275800        -7.5049
 102   1.0000      -0.274682        -7.4745
 103   1.0000      -0.273301        -7.4369
 104   1.0000      -0.271229        -7.3805
 105   1.0000      -0.269348        -7.3293
 106   1.0000      -0.268143        -7.2965
 107   1.0000      -0.264972        -7.2102
 108   1.0000      -0.264114        -7.1869
 109   1.0000      -0.262306        -7.1377
 110   1.0000      -0.260118        -7.0782
 111   1.0000      -0.259374        -7.0579
 112   1.0000      -0.259165        -7.0522
 113   1.0000      -0.255518        -6.9530
 114   1.0000      -0.254592        -6.9278
 115   1.0000      -0.253965        -6.9107
 116   1.0000      -0.250317        -6.8115
 117   1.0000      -0.248413        -6.7597
 118   1.0000      -0.248347        -6.7579
 119   1.0000      -0.243673        -6.6307
 120   1.0000      -0.243257        -6.6194
 121   1.0000      -0.218395        -5.9428
 122   1.0000      -0.198913        -5.4127
 123   1.0000      -0.196574        -5.3490
 124   1.0000      -0.195537        -5.3208
 125   1.0000      -0.182724        -4.9722
 126   0.0000      -0.152659        -4.1541
 127   0.0000      -0.147292        -4.0080
 128   0.0000      -0.143705        -3.9104
 129   0.0000      -0.138639        -3.7725
 130   0.0000      -0.124129        -3.3777

MULLIKEN ATOMIC CHARGES AND SPIN POPULATIONS
--------------------------------------------
   0 Au:    0.320601   -0.068780
   1 Au:    0.283617   -0.177580
   2 Au:    0.139741   -0.000216
   3 Au:    0.134601    0.010414
   4 Au:    0.283084   -0.177410
   5 Au:    0.352217    0.029593
   6 Au:    0.264247   -0.169357
   7 Au:    0.005404    0.034774
   8 Au:    0.307242   -0.164971
   9 Au:    0.013227   -0.182702
  10 Au:    0.306880   -0.163758
  11 Au:    0.001206    0.044478
  12 Fe:   -2.412067    2.985514
Sum of atomic charges         :   -0.0000000

LOEWDIN ATOMIC CHARGES AND SPIN POPULATIONS
-------------------------------------------
   0 Au:    0.094080   -0.130504
   1 Au:    0.076983   -0.130146
   2 Au:    0.024750   -0.050544
   3 Au:    0.023122   -0.045501
   4 Au:    0.076069   -0.129352
   5 Au:    0.103597    0.003616
   6 Au:    0.068903   -0.149280
   7 Au:   -0.002793   -0.028984
   8 Au:    0.092677   -0.132035
   9 Au:   -0.005870   -0.110497
  10 Au:    0.091794   -0.129881
  11 Au:   -0.004398   -0.024194
  12 Fe:   -0.638914    3.057302

  Mayer bond orders larger than 0.100000
B(  0-Au,  1-Au) :   0.1550 B(  0-Au,  2-Au) :   0.1843 B(  0-Au,  3-Au) :   0.1830
B(  0-Au,  4-Au) :   0.1534 B(  0-Au,  9-Au) :   0.2636 B(  0-Au, 12-Fe) :   0.4082
B(  1-Au,  2-Au) :   0.1972 B(  1-Au,  9-Au) :   0.1465 B(  1-Au, 10-Au) :   0.1102
B(  1-Au, 11-Au) :   0.1648 B(  1-Au, 12-Fe) :   0.5638 B(  2-Au,  3-Au) :   0.1002
B(  2-Au,  6-Au) :   0.2278 B(  2-Au, 10-Au) :   0.1007 B(  2-Au, 12-Fe) :   0.5084
B(  3-Au,  4-Au) :   0.2040 B(  3-Au,  6-Au) :   0.2218 B(  3-Au, 12-Fe) :   0.5067
B(  4-Au,  7-Au) :   0.1620 B(  4-Au,  8-Au) :   0.1095 B(  4-Au,  9-Au) :   0.1488
B(  4-Au, 12-Fe) :   0.5619 B(  5-Au,  7-Au) :   0.3463 B(  5-Au,  9-Au) :   0.3711
B(  5-Au, 11-Au) :   0.3468 B(  6-Au,  8-Au) :   0.1743 B(  6-Au, 10-Au) :   0.1758
B(  6-Au, 12-Fe) :   0.4871 B(  7-Au,  8-Au) :   0.3026 B(  7-Au,  9-Au) :   0.1480
B(  7-Au, 12-Fe) :   0.4992 B(  8-Au, 12-Fe) :   0.5564 B(  9-Au, 11-Au) :   0.1410
B(  9-Au, 12-Fe) :   0.5143 B( 10-Au, 11-Au) :   0.3028 B( 10-Au, 12-Fe) :   0.5557
B( 11-Au, 12-Fe) :   0.4967

FINAL SINGLE POINT ENERGY     -2893.834810231282

DIPOLE MOMENT
-------------
                                X             Y             Z
Electronic contribution:      1.61915     -12.38425       4.26336
Nuclear contribution   :     -1.48228      12.14439      -4.07619
                        -----------------------------------------
Total Dipole Moment    :      0.13687      -0.23986       0.18718
                        -----------------------------------------
Magnitude (a.u.)       :      0.33362
Magnitude (Debye)      :      0.84799

Rotational constants in cm-1:     0.001661     0.001253     0.001135
Rotational constants in MHz :    49.798106    37.551520    34.016742

                             ****ORCA TERMINATED NORMALLY****
TOTAL RUN TIME: 0 days 0 hours 8 minutes 25 seconds 890 msec
