                         Program Version 5.0.3 -  RELEASE  -
|  1> !RI-B2PLYP def2-TZVP def2-TZVP/C
|  2> !RIJCOSX VERYSLOWCONV
|  3>
|  4> %scf
|  5>   AutoTRAHIter 200
|  6>   maxiter 400
|  7> end
|  8>
|  9>
| 10> %pal nprocs 6 end
| 11>
| 12> *xyzfile 0 5 pbe.xyz
| 13>
| 14> $new_job
| 15>
| 16> !RI-B2PLYP def2-TZVP def2-TZVP/C
| 17> !RIJCOSX VERYSLOWCONV
| 18>
| 19> %scf
| 20>   AutoTRAHIter 200
| 21>   maxiter 400
| 22> end
| 23>
| 24>
| 25> %pal nprocs 6 end
| 26>
| 27> *xyzfile 0 3 pbe.xyz
| 28>
| 29>
| 30>
| 31>
| 32>
| 33>                          ****END OF INPUT****
 Total Charge           Charge          ....    0
 Multiplicity           Mult            ....    5
 Number of Electrons    NEL             ....  254
MP2 TOTAL ENERGY:    -2890.524869193 Eh
FINAL SINGLE POINT ENERGY     -2890.524869193231

CARTESIAN COORDINATES (ANGSTROEM)
---------------------------------
  Au     7.154456    5.719346   10.201053
  Au     5.411668    6.525784    8.158818
  Au     8.060921    6.764405    7.208150
  Au     6.855018    8.619266    9.161391
  Au     7.100215    4.182979    7.902725
  Au    11.919587    9.210122    9.488346
  Au    11.613728    6.402348    9.643917
  Au     7.827984    7.805347   11.804689
  Au    10.527083    8.175639   11.644060
  Au    10.383421    8.101746    7.457311
  Au     9.608414    4.802014    8.831469
  Au     9.182435    9.905404    9.728240
  Fe     9.154651    7.297531    9.568339

 Multiplicity           Mult            ....    3
 Number of Electrons    NEL             ....  254
 Basis Dimension        Dim             ....  525

ORBITAL ENERGIES
----------------
                 SPIN UP ORBITALS
  NO   OCC          E(Eh)            E(eV)
   0   1.0000    -258.332284     -7029.5788
   1   1.0000     -30.894329      -840.6774
   2   1.0000     -26.611775      -724.1432
   3   1.0000     -26.586483      -723.4550
   4   1.0000     -26.578889      -723.2483
   5   1.0000      -4.403918      -119.8367
   6   1.0000      -4.402063      -119.7862
   7   1.0000      -4.401735      -119.7773
   8   1.0000      -4.400050      -119.7314
   9   1.0000      -4.399312      -119.7114
  10   1.0000      -4.396472      -119.6341
  11   1.0000      -4.396064      -119.6230
  12   1.0000      -4.394765      -119.5876
  13   1.0000      -4.394567      -119.5822
  14   1.0000      -4.388986      -119.4304
  15   1.0000      -4.388285      -119.4113
  16   1.0000      -4.383840      -119.2903
  17   1.0000      -3.906715      -106.3071
  18   1.0000      -2.655012       -72.2466
  19   1.0000      -2.602942       -70.8296
  20   1.0000      -2.587407       -70.4069
  21   1.0000      -2.526555       -68.7511
  22   1.0000      -2.523474       -68.6672
  23   1.0000      -2.522869       -68.6508
  24   1.0000      -2.522387       -68.6376
  25   1.0000      -2.522224       -68.6332
  26   1.0000      -2.521274       -68.6073
  27   1.0000      -2.520488       -68.5860
  28   1.0000      -2.519343       -68.5548
  29   1.0000      -2.518922       -68.5433
  30   1.0000      -2.518122       -68.5216
  31   1.0000      -2.517531       -68.5055
  32   1.0000      -2.517367       -68.5010
  33   1.0000      -2.516527       -68.4782
  34   1.0000      -2.516288       -68.4717
  35   1.0000      -2.515614       -68.4533
  36   1.0000      -2.515116       -68.4398
  37   1.0000      -2.514760       -68.4301
  38   1.0000      -2.514104       -68.4123
  39   1.0000      -2.513630       -68.3993
  40   1.0000      -2.513160       -68.3866
  41   1.0000      -2.512422       -68.3665
  42   1.0000      -2.511434       -68.3396
  43   1.0000      -2.511025       -68.3285
  44   1.0000      -2.510545       -68.3154
  45   1.0000      -2.509134       -68.2770
  46   1.0000      -2.508164       -68.2506
  47   1.0000      -2.507003       -68.2190
  48   1.0000      -2.506657       -68.2096
  49   1.0000      -2.505945       -68.1902
  50   1.0000      -2.505307       -68.1729
  51   1.0000      -2.505034       -68.1654
  52   1.0000      -2.504875       -68.1611
  53   1.0000      -2.503225       -68.1162
  54   1.0000      -2.502285       -68.0906
  55   1.0000      -2.500210       -68.0342
  56   1.0000      -2.498815       -67.9962
  57   1.0000      -0.559018       -15.2117
  58   1.0000      -0.556569       -15.1450
  59   1.0000      -0.549598       -14.9553
  60   1.0000      -0.534649       -14.5485
  61   1.0000      -0.506652       -13.7867
  62   1.0000      -0.503970       -13.7137
  63   1.0000      -0.473261       -12.8781
  64   1.0000      -0.462523       -12.5859
  65   1.0000      -0.460912       -12.5421
  66   1.0000      -0.458162       -12.4672
  67   1.0000      -0.456472       -12.4212
  68   1.0000      -0.452074       -12.3016
  69   1.0000      -0.449624       -12.2349
  70   1.0000      -0.448258       -12.1977
  71   1.0000      -0.445475       -12.1220
  72   1.0000      -0.441827       -12.0227
  73   1.0000      -0.440663       -11.9911
  74   1.0000      -0.438011       -11.9189
  75   1.0000      -0.435890       -11.8612
  76   1.0000      -0.435071       -11.8389
  77   1.0000      -0.430199       -11.7063
  78   1.0000      -0.428408       -11.6576
  79   1.0000      -0.426000       -11.5920
  80   1.0000      -0.424009       -11.5379
  81   1.0000      -0.419106       -11.4044
  82   1.0000      -0.417728       -11.3670
  83   1.0000      -0.416467       -11.3326
  84   1.0000      -0.410435       -11.1685
  85   1.0000      -0.409572       -11.1450
  86   1.0000      -0.406820       -11.0701
  87   1.0000      -0.399836       -10.8801
  88   1.0000      -0.397691       -10.8217
  89   1.0000      -0.395764       -10.7693
  90   1.0000      -0.392496       -10.6804
  91   1.0000      -0.389145       -10.5892
  92   1.0000      -0.386409       -10.5147
  93   1.0000      -0.384406       -10.4602
  94   1.0000      -0.383715       -10.4414
  95   1.0000      -0.380717       -10.3598
  96   1.0000      -0.374984       -10.2038
  97   1.0000      -0.373890       -10.1741
  98   1.0000      -0.372236       -10.1291
  99   1.0000      -0.371019       -10.0959
 100   1.0000      -0.370073       -10.0702
 101   1.0000      -0.368572       -10.0294
 102   1.0000      -0.367825       -10.0090
 103   1.0000      -0.365023        -9.9328
 104   1.0000      -0.363817        -9.9000
 105   1.0000      -0.362548        -9.8654
 106   1.0000      -0.361965        -9.8496
 107   1.0000      -0.361796        -9.8450
 108   1.0000      -0.359455        -9.7813
 109   1.0000      -0.358432        -9.7534
 110   1.0000      -0.356661        -9.7052
 111   1.0000      -0.354721        -9.6524
 112   1.0000      -0.352575        -9.5940
 113   1.0000      -0.351339        -9.5604
 114   1.0000      -0.348184        -9.4746
 115   1.0000      -0.347361        -9.4522
 116   1.0000      -0.342407        -9.3174
 117   1.0000      -0.340804        -9.2737
 118   1.0000      -0.336639        -9.1604
 119   1.0000      -0.333355        -9.0710
 120   1.0000      -0.330791        -9.0013
 121   1.0000      -0.329786        -8.9739
 122   1.0000      -0.322915        -8.7870
 123   1.0000      -0.319954        -8.7064
 124   1.0000      -0.294285        -8.0079
 125   1.0000      -0.259034        -7.0487
 126   1.0000      -0.237837        -6.4719
 127   1.0000      -0.214190        -5.8284
 128   0.0000      -0.113041        -3.0760
 129   0.0000      -0.110758        -3.0139
 130   0.0000      -0.082057        -2.2329
 131   0.0000      -0.067554        -1.8382
 132   0.0000      -0.062505        -1.7009

                 SPIN DOWN ORBITALS
  NO   OCC          E(Eh)            E(eV)
   0   1.0000    -258.330225     -7029.5228
   1   1.0000     -30.802958      -838.1911
   2   1.0000     -26.514051      -721.4840
   3   1.0000     -26.507472      -721.3050
   4   1.0000     -26.505363      -721.2476
   5   1.0000      -4.404071      -119.8409
   6   1.0000      -4.402708      -119.8038
   7   1.0000      -4.402315      -119.7931
   8   1.0000      -4.400541      -119.7448
   9   1.0000      -4.399198      -119.7083
  10   1.0000      -4.397178      -119.6533
  11   1.0000      -4.396939      -119.6468
  12   1.0000      -4.394772      -119.5878
  13   1.0000      -4.394647      -119.5844
  14   1.0000      -4.390040      -119.4591
  15   1.0000      -4.388545      -119.4184
  16   1.0000      -4.384377      -119.3050
  17   1.0000      -3.665719       -99.7493
  18   1.0000      -2.525887       -68.7329
  19   1.0000      -2.522888       -68.6513
  20   1.0000      -2.522297       -68.6352
  21   1.0000      -2.521564       -68.6153
  22   1.0000      -2.521399       -68.6108
  23   1.0000      -2.520344       -68.5820
  24   1.0000      -2.520072       -68.5747
  25   1.0000      -2.519586       -68.5614
  26   1.0000      -2.518533       -68.5328
  27   1.0000      -2.517623       -68.5080
  28   1.0000      -2.517239       -68.4976
  29   1.0000      -2.516664       -68.4819
  30   1.0000      -2.516445       -68.4760
  31   1.0000      -2.515794       -68.4582
  32   1.0000      -2.515190       -68.4418
  33   1.0000      -2.514753       -68.4299
  34   1.0000      -2.514366       -68.4194
  35   1.0000      -2.514217       -68.4153
  36   1.0000      -2.513954       -68.4082
  37   1.0000      -2.513079       -68.3844
  38   1.0000      -2.512311       -68.3635
  39   1.0000      -2.511732       -68.3477
  40   1.0000      -2.511428       -68.3394
  41   1.0000      -2.510903       -68.3251
  42   1.0000      -2.509943       -68.2990
  43   1.0000      -2.508114       -68.2492
  44   1.0000      -2.507430       -68.2306
  45   1.0000      -2.507139       -68.2227
  46   1.0000      -2.507037       -68.2200
  47   1.0000      -2.506233       -68.1981
  48   1.0000      -2.505247       -68.1712
  49   1.0000      -2.504963       -68.1635
  50   1.0000      -2.504167       -68.1419
  51   1.0000      -2.502934       -68.1083
  52   1.0000      -2.500629       -68.0456
  53   1.0000      -2.500038       -68.0295
  54   1.0000      -2.346158       -63.8422
  55   1.0000      -2.343069       -63.7581
  56   1.0000      -2.330493       -63.4159
  57   1.0000      -0.507323       -13.8050
  58   1.0000      -0.477549       -12.9948
  59   1.0000      -0.473610       -12.8876
  60   1.0000      -0.467319       -12.7164
  61   1.0000      -0.464113       -12.6292
  62   1.0000      -0.462179       -12.5765
  63   1.0000      -0.457263       -12.4427
  64   1.0000      -0.456326       -12.4173
  65   1.0000      -0.453429       -12.3384
  66   1.0000      -0.451414       -12.2836
  67   1.0000      -0.450140       -12.2489
  68   1.0000      -0.448587       -12.2067
  69   1.0000      -0.443540       -12.0693
  70   1.0000      -0.441018       -12.0007
  71   1.0000      -0.440316       -11.9816
  72   1.0000      -0.438159       -11.9229
  73   1.0000      -0.435576       -11.8526
  74   1.0000      -0.433906       -11.8072
  75   1.0000      -0.431477       -11.7411
  76   1.0000      -0.426769       -11.6130
  77   1.0000      -0.423934       -11.5358
  78   1.0000      -0.423453       -11.5227
  79   1.0000      -0.419105       -11.4044
  80   1.0000      -0.417284       -11.3549
  81   1.0000      -0.413726       -11.2580
  82   1.0000      -0.409996       -11.1565
  83   1.0000      -0.407305       -11.0833
  84   1.0000      -0.401691       -10.9306
  85   1.0000      -0.399833       -10.8800
  86   1.0000      -0.396289       -10.7836
  87   1.0000      -0.394559       -10.7365
  88   1.0000      -0.390104       -10.6153
  89   1.0000      -0.387351       -10.5404
  90   1.0000      -0.385825       -10.4988
  91   1.0000      -0.382257       -10.4017
  92   1.0000      -0.381054       -10.3690
  93   1.0000      -0.377051       -10.2601
  94   1.0000      -0.376486       -10.2447
  95   1.0000      -0.374493       -10.1905
  96   1.0000      -0.372667       -10.1408
  97   1.0000      -0.371476       -10.1084
  98   1.0000      -0.369085       -10.0433
  99   1.0000      -0.368419       -10.0252
 100   1.0000      -0.365462        -9.9447
 101   1.0000      -0.364377        -9.9152
 102   1.0000      -0.364258        -9.9120
 103   1.0000      -0.363573        -9.8933
 104   1.0000      -0.361861        -9.8467
 105   1.0000      -0.359833        -9.7916
 106   1.0000      -0.357688        -9.7332
 107   1.0000      -0.354205        -9.6384
 108   1.0000      -0.352837        -9.6012
 109   1.0000      -0.351877        -9.5750
 110   1.0000      -0.349469        -9.5095
 111   1.0000      -0.345418        -9.3993
 112   1.0000      -0.344537        -9.3753
 113   1.0000      -0.340920        -9.2769
 114   1.0000      -0.339093        -9.2272
 115   1.0000      -0.335676        -9.1342
 116   1.0000      -0.333265        -9.0686
 117   1.0000      -0.328169        -8.9299
 118   1.0000      -0.324395        -8.8272
 119   1.0000      -0.317274        -8.6335
 120   1.0000      -0.308055        -8.3826
 121   1.0000      -0.284519        -7.7422
 122   1.0000      -0.246649        -6.7117
 123   1.0000      -0.225031        -6.1234
 124   1.0000      -0.221605        -6.0302
 125   1.0000      -0.198455        -5.4002
 126   0.0000      -0.089594        -2.4380
 127   0.0000      -0.070663        -1.9229
 128   0.0000      -0.068519        -1.8645
 129   0.0000      -0.056936        -1.5493
 130   0.0000      -0.046727        -1.2715

MULLIKEN ATOMIC CHARGES AND SPIN POPULATIONS
--------------------------------------------
   0 Au:    0.017109   -0.292368
   1 Au:    0.253406    0.033823
   2 Au:   -0.023143   -0.272174
   3 Au:    0.031515   -0.148311
   4 Au:    0.307976    0.073940
   5 Au:    0.245842   -0.158722
   6 Au:    0.140796   -0.024193
   7 Au:    0.327485   -0.118824
   8 Au:    0.180641   -0.295833
   9 Au:    0.195512   -0.230896
  10 Au:    0.052130   -0.102080
  11 Au:    0.154559   -0.101924
  12 Fe:   -1.883826    3.637562
Sum of atomic charges         :    0.0000000

LOEWDIN ATOMIC CHARGES AND SPIN POPULATIONS
-------------------------------------------
   0 Au:   -0.053169   -0.147698
   1 Au:    0.052133   -0.026588
   2 Au:   -0.053235   -0.145911
   3 Au:    0.000441   -0.124516
   4 Au:    0.066251   -0.000446
   5 Au:    0.039017   -0.145123
   6 Au:    0.032775   -0.087466
   7 Au:    0.122615   -0.191306
   8 Au:    0.008562   -0.189422
   9 Au:    0.057461   -0.184803
  10 Au:    0.035717   -0.085423
  11 Au:    0.028301   -0.133658
  12 Fe:   -0.336870    3.462360

  Mayer bond orders larger than 0.100000
B(  0-Au,  1-Au) :   0.2256 B(  0-Au,  2-Au) :   0.1058 B(  0-Au,  4-Au) :   0.3131
B(  0-Au,  7-Au) :   0.3178 B(  0-Au, 10-Au) :   0.1338 B(  0-Au, 12-Fe) :   0.3523
B(  1-Au,  2-Au) :   0.2906 B(  1-Au,  3-Au) :   0.4054 B(  1-Au,  4-Au) :   0.1121
B(  2-Au,  3-Au) :   0.1408 B(  2-Au,  4-Au) :   0.2211 B(  2-Au,  9-Au) :   0.3470
B(  2-Au, 12-Fe) :   0.4273 B(  3-Au, 11-Au) :   0.2687 B(  3-Au, 12-Fe) :   0.5165
B(  4-Au, 10-Au) :   0.3526 B(  5-Au,  6-Au) :   0.2052 B(  5-Au,  8-Au) :   0.2095
B(  5-Au,  9-Au) :   0.2672 B(  5-Au, 11-Au) :   0.2273 B(  5-Au, 12-Fe) :   0.1555
B(  6-Au,  8-Au) :   0.1361 B(  6-Au, 10-Au) :   0.2900 B(  6-Au, 12-Fe) :   0.5305
B(  7-Au,  8-Au) :   0.2167 B(  7-Au, 12-Fe) :   0.5122 B(  8-Au, 11-Au) :   0.1116
B(  8-Au, 12-Fe) :   0.4109 B(  9-Au, 12-Fe) :   0.5036 B( 10-Au, 12-Fe) :   0.5775
B( 11-Au, 12-Fe) :   0.5018

MP2 TOTAL ENERGY:    -2890.518438682 Eh
FINAL SINGLE POINT ENERGY     -2890.518438682142

DIPOLE MOMENT
-------------
                                X             Y             Z
Electronic contribution:    -13.38749      -4.22279     -11.33191
Nuclear contribution   :     13.35302       4.29991      11.38384
                        -----------------------------------------
Total Dipole Moment    :     -0.03447       0.07712       0.05194
                        -----------------------------------------
Magnitude (a.u.)       :      0.09916
Magnitude (Debye)      :      0.25204

Rotational constants in cm-1:     0.001839     0.001117     0.001001
Rotational constants in MHz :    55.124708    33.476668    30.004995

                             ****ORCA TERMINATED NORMALLY****
TOTAL RUN TIME: 0 days 0 hours 47 minutes 28 seconds 486 msec
