                         Program Version 5.0.3 -  RELEASE  -
|  1> !PBE def2-TZVP VERYSLOWCONV
|  2>
|  3> %scf
|  4>   AutoTRAHIter 200
|  5>   maxiter 400
|  6> end
|  7>
|  8>
|  9> %pal nprocs 6 end
| 10>
| 11> *xyzfile 0 5 pbe.xyz
| 12>
| 13> $new_job
| 14>
| 15> !PBE def2-TZVP VERYSLOWCONV
| 16>
| 17> %scf
| 18>   AutoTRAHIter 200
| 19>   maxiter 400
| 20> end
| 21>
| 22>
| 23> %pal nprocs 6 end
| 24>
| 25> *xyzfile 0 3 pbe.xyz
| 26>
| 27>
| 28>
| 29>
| 30>
| 31>                          ****END OF INPUT****
 Total Charge           Charge          ....    0
 Multiplicity           Mult            ....    5
 Number of Electrons    NEL             ....  254
FINAL SINGLE POINT ENERGY     -2893.392235569925

CARTESIAN COORDINATES (ANGSTROEM)
---------------------------------
  Au     7.154456    5.719346   10.201053
  Au     5.411668    6.525784    8.158818
  Au     8.060921    6.764405    7.208150
  Au     6.855018    8.619266    9.161391
  Au     7.100215    4.182979    7.902725
  Au    11.919587    9.210122    9.488346
  Au    11.613728    6.402348    9.643917
  Au     7.827984    7.805347   11.804689
  Au    10.527083    8.175639   11.644060
  Au    10.383421    8.101746    7.457311
  Au     9.608414    4.802014    8.831469
  Au     9.182435    9.905404    9.728240
  Fe     9.154651    7.297531    9.568339

 Multiplicity           Mult            ....    3
 Number of Electrons    NEL             ....  254
 Basis Dimension        Dim             ....  525

ORBITAL ENERGIES
----------------
                 SPIN UP ORBITALS
  NO   OCC          E(Eh)            E(eV)
   0   1.0000    -254.748557     -6932.0607
   1   1.0000     -29.587185      -805.1082
   2   1.0000     -25.534103      -694.8183
   3   1.0000     -25.522555      -694.5040
   4   1.0000     -25.512147      -694.2208
   5   1.0000      -4.032223      -109.7224
   6   1.0000      -4.028841      -109.6303
   7   1.0000      -4.026251      -109.5599
   8   1.0000      -4.024377      -109.5089
   9   1.0000      -4.022975      -109.4707
  10   1.0000      -4.022358      -109.4539
  11   1.0000      -4.022162      -109.4486
  12   1.0000      -4.020703      -109.4089
  13   1.0000      -4.020382      -109.4001
  14   1.0000      -4.017656      -109.3260
  15   1.0000      -4.017038      -109.3091
  16   1.0000      -4.014673      -109.2448
  17   1.0000      -3.361657       -91.4753
  18   1.0000      -2.249789       -61.2199
  19   1.0000      -2.246604       -61.1332
  20   1.0000      -2.245246       -61.0962
  21   1.0000      -2.243802       -61.0570
  22   1.0000      -2.241923       -61.0058
  23   1.0000      -2.241471       -60.9935
  24   1.0000      -2.241067       -60.9825
  25   1.0000      -2.241026       -60.9814
  26   1.0000      -2.239941       -60.9519
  27   1.0000      -2.239889       -60.9505
  28   1.0000      -2.238655       -60.9169
  29   1.0000      -2.238174       -60.9038
  30   1.0000      -2.238071       -60.9010
  31   1.0000      -2.237778       -60.8930
  32   1.0000      -2.237087       -60.8742
  33   1.0000      -2.236610       -60.8612
  34   1.0000      -2.236190       -60.8498
  35   1.0000      -2.235948       -60.8432
  36   1.0000      -2.235628       -60.8345
  37   1.0000      -2.234752       -60.8107
  38   1.0000      -2.234399       -60.8011
  39   1.0000      -2.233244       -60.7697
  40   1.0000      -2.231860       -60.7320
  41   1.0000      -2.231497       -60.7221
  42   1.0000      -2.231050       -60.7099
  43   1.0000      -2.230063       -60.6831
  44   1.0000      -2.229844       -60.6771
  45   1.0000      -2.229798       -60.6759
  46   1.0000      -2.229318       -60.6628
  47   1.0000      -2.228932       -60.6523
  48   1.0000      -2.228737       -60.6470
  49   1.0000      -2.228057       -60.6285
  50   1.0000      -2.227956       -60.6258
  51   1.0000      -2.227224       -60.6059
  52   1.0000      -2.226726       -60.5923
  53   1.0000      -2.225767       -60.5662
  54   1.0000      -2.198487       -59.8239
  55   1.0000      -2.173099       -59.1330
  56   1.0000      -2.154124       -58.6167
  57   1.0000      -0.424199       -11.5430
  58   1.0000      -0.388516       -10.5721
  59   1.0000      -0.376326       -10.2403
  60   1.0000      -0.371133       -10.0991
  61   1.0000      -0.368280       -10.0214
  62   1.0000      -0.364985        -9.9317
  63   1.0000      -0.362112        -9.8536
  64   1.0000      -0.360329        -9.8050
  65   1.0000      -0.353715        -9.6251
  66   1.0000      -0.347980        -9.4690
  67   1.0000      -0.346507        -9.4289
  68   1.0000      -0.345428        -9.3996
  69   1.0000      -0.339087        -9.2270
  70   1.0000      -0.337105        -9.1731
  71   1.0000      -0.336333        -9.1521
  72   1.0000      -0.334630        -9.1057
  73   1.0000      -0.331821        -9.0293
  74   1.0000      -0.330292        -8.9877
  75   1.0000      -0.327284        -8.9059
  76   1.0000      -0.323855        -8.8125
  77   1.0000      -0.323151        -8.7934
  78   1.0000      -0.322401        -8.7730
  79   1.0000      -0.318838        -8.6760
  80   1.0000      -0.315665        -8.5897
  81   1.0000      -0.313635        -8.5344
  82   1.0000      -0.312044        -8.4912
  83   1.0000      -0.306729        -8.3465
  84   1.0000      -0.304544        -8.2871
  85   1.0000      -0.302435        -8.2297
  86   1.0000      -0.294363        -8.0100
  87   1.0000      -0.293090        -7.9754
  88   1.0000      -0.291705        -7.9377
  89   1.0000      -0.287360        -7.8195
  90   1.0000      -0.285728        -7.7751
  91   1.0000      -0.284740        -7.7482
  92   1.0000      -0.281822        -7.6688
  93   1.0000      -0.280916        -7.6441
  94   1.0000      -0.280075        -7.6212
  95   1.0000      -0.276373        -7.5205
  96   1.0000      -0.274077        -7.4580
  97   1.0000      -0.273530        -7.4431
  98   1.0000      -0.271697        -7.3932
  99   1.0000      -0.269702        -7.3390
 100   1.0000      -0.267653        -7.2832
 101   1.0000      -0.267059        -7.2670
 102   1.0000      -0.265770        -7.2320
 103   1.0000      -0.264963        -7.2100
 104   1.0000      -0.263963        -7.1828
 105   1.0000      -0.262235        -7.1358
 106   1.0000      -0.261645        -7.1197
 107   1.0000      -0.258759        -7.0412
 108   1.0000      -0.256621        -6.9830
 109   1.0000      -0.256236        -6.9725
 110   1.0000      -0.255147        -6.9429
 111   1.0000      -0.253793        -6.9061
 112   1.0000      -0.251096        -6.8327
 113   1.0000      -0.249069        -6.7775
 114   1.0000      -0.248533        -6.7629
 115   1.0000      -0.247555        -6.7363
 116   1.0000      -0.244854        -6.6628
 117   1.0000      -0.242907        -6.6098
 118   1.0000      -0.241406        -6.5690
 119   1.0000      -0.239787        -6.5249
 120   1.0000      -0.237052        -6.4505
 121   1.0000      -0.235022        -6.3953
 122   1.0000      -0.234854        -6.3907
 123   1.0000      -0.231905        -6.3104
 124   1.0000      -0.228616        -6.2210
 125   1.0000      -0.224837        -6.1181
 126   1.0000      -0.214940        -5.8488
 127   1.0000      -0.195644        -5.3238
 128   0.0000      -0.177292        -4.8244
 129   0.0000      -0.172774        -4.7014
 130   0.0000      -0.143071        -3.8932
 131   0.0000      -0.131346        -3.5741
 132   0.0000      -0.126838        -3.4514

                 SPIN DOWN ORBITALS
  NO   OCC          E(Eh)            E(eV)
   0   1.0000    -254.747905     -6932.0429
   1   1.0000     -29.533089      -803.6362
   2   1.0000     -25.487267      -693.5438
   3   1.0000     -25.482733      -693.4204
   4   1.0000     -25.476245      -693.2439
   5   1.0000      -4.031560      -109.7043
   6   1.0000      -4.028554      -109.6225
   7   1.0000      -4.026504      -109.5667
   8   1.0000      -4.024409      -109.5097
   9   1.0000      -4.023786      -109.4928
  10   1.0000      -4.022208      -109.4498
  11   1.0000      -4.022165      -109.4487
  12   1.0000      -4.020532      -109.4042
  13   1.0000      -4.020097      -109.3924
  14   1.0000      -4.018358      -109.3451
  15   1.0000      -4.017537      -109.3227
  16   1.0000      -4.015256      -109.2607
  17   1.0000      -3.239390       -88.1483
  18   1.0000      -2.248794       -61.1928
  19   1.0000      -2.246041       -61.1179
  20   1.0000      -2.244478       -61.0753
  21   1.0000      -2.244029       -61.0631
  22   1.0000      -2.241419       -60.9921
  23   1.0000      -2.241119       -60.9839
  24   1.0000      -2.240993       -60.9805
  25   1.0000      -2.240697       -60.9725
  26   1.0000      -2.239717       -60.9458
  27   1.0000      -2.239559       -60.9415
  28   1.0000      -2.239127       -60.9297
  29   1.0000      -2.238102       -60.9018
  30   1.0000      -2.237604       -60.8883
  31   1.0000      -2.237121       -60.8752
  32   1.0000      -2.236757       -60.8653
  33   1.0000      -2.236503       -60.8583
  34   1.0000      -2.236423       -60.8562
  35   1.0000      -2.235525       -60.8317
  36   1.0000      -2.235311       -60.8259
  37   1.0000      -2.235162       -60.8218
  38   1.0000      -2.234454       -60.8026
  39   1.0000      -2.233559       -60.7782
  40   1.0000      -2.232732       -60.7557
  41   1.0000      -2.232117       -60.7390
  42   1.0000      -2.231835       -60.7313
  43   1.0000      -2.230844       -60.7044
  44   1.0000      -2.230332       -60.6904
  45   1.0000      -2.230141       -60.6852
  46   1.0000      -2.229799       -60.6759
  47   1.0000      -2.229495       -60.6676
  48   1.0000      -2.229150       -60.6583
  49   1.0000      -2.228713       -60.6464
  50   1.0000      -2.228409       -60.6381
  51   1.0000      -2.227727       -60.6195
  52   1.0000      -2.226863       -60.5960
  53   1.0000      -2.226620       -60.5894
  54   1.0000      -2.061090       -56.0851
  55   1.0000      -2.056558       -55.9618
  56   1.0000      -2.049668       -55.7743
  57   1.0000      -0.420745       -11.4491
  58   1.0000      -0.388359       -10.5678
  59   1.0000      -0.373807       -10.1718
  60   1.0000      -0.368622       -10.0307
  61   1.0000      -0.366399        -9.9702
  62   1.0000      -0.360592        -9.8122
  63   1.0000      -0.357596        -9.7307
  64   1.0000      -0.355599        -9.6763
  65   1.0000      -0.349994        -9.5238
  66   1.0000      -0.346058        -9.4167
  67   1.0000      -0.344511        -9.3746
  68   1.0000      -0.343349        -9.3430
  69   1.0000      -0.337678        -9.1887
  70   1.0000      -0.336645        -9.1606
  71   1.0000      -0.334577        -9.1043
  72   1.0000      -0.332435        -9.0460
  73   1.0000      -0.329349        -8.9621
  74   1.0000      -0.327562        -8.9134
  75   1.0000      -0.324632        -8.8337
  76   1.0000      -0.322128        -8.7655
  77   1.0000      -0.321083        -8.7371
  78   1.0000      -0.319282        -8.6881
  79   1.0000      -0.318017        -8.6537
  80   1.0000      -0.314568        -8.5598
  81   1.0000      -0.311307        -8.4711
  82   1.0000      -0.310337        -8.4447
  83   1.0000      -0.307219        -8.3599
  84   1.0000      -0.300945        -8.1891
  85   1.0000      -0.299160        -8.1406
  86   1.0000      -0.293844        -7.9959
  87   1.0000      -0.292598        -7.9620
  88   1.0000      -0.290598        -7.9076
  89   1.0000      -0.287059        -7.8113
  90   1.0000      -0.284413        -7.7393
  91   1.0000      -0.283249        -7.7076
  92   1.0000      -0.280152        -7.6233
  93   1.0000      -0.278989        -7.5917
  94   1.0000      -0.277962        -7.5637
  95   1.0000      -0.275001        -7.4832
  96   1.0000      -0.274622        -7.4729
  97   1.0000      -0.273404        -7.4397
  98   1.0000      -0.272038        -7.4025
  99   1.0000      -0.270576        -7.3628
 100   1.0000      -0.267891        -7.2897
 101   1.0000      -0.267119        -7.2687
 102   1.0000      -0.266069        -7.2401
 103   1.0000      -0.265719        -7.2306
 104   1.0000      -0.264690        -7.2026
 105   1.0000      -0.262465        -7.1420
 106   1.0000      -0.260813        -7.0971
 107   1.0000      -0.257539        -7.0080
 108   1.0000      -0.257136        -6.9970
 109   1.0000      -0.255874        -6.9627
 110   1.0000      -0.254425        -6.9233
 111   1.0000      -0.251797        -6.8518
 112   1.0000      -0.249835        -6.7984
 113   1.0000      -0.248893        -6.7727
 114   1.0000      -0.247630        -6.7383
 115   1.0000      -0.245580        -6.6826
 116   1.0000      -0.243426        -6.6240
 117   1.0000      -0.242028        -6.5859
 118   1.0000      -0.238684        -6.4949
 119   1.0000      -0.236470        -6.4347
 120   1.0000      -0.230512        -6.2726
 121   1.0000      -0.219761        -5.9800
 122   1.0000      -0.203842        -5.5468
 123   1.0000      -0.196677        -5.3518
 124   1.0000      -0.195854        -5.3295
 125   1.0000      -0.173260        -4.7146
 126   0.0000      -0.162744        -4.4285
 127   0.0000      -0.157659        -4.2901
 128   0.0000      -0.149531        -4.0690
 129   0.0000      -0.137983        -3.7547
 130   0.0000      -0.136223        -3.7068

MULLIKEN ATOMIC CHARGES AND SPIN POPULATIONS
--------------------------------------------
   0 Au:    0.065875   -0.101344
   1 Au:    0.266779    0.013448
   2 Au:    0.032034   -0.109443
   3 Au:    0.069594   -0.085929
   4 Au:    0.322182    0.034692
   5 Au:    0.284127   -0.075268
   6 Au:    0.201601   -0.001558
   7 Au:    0.351836   -0.118942
   8 Au:    0.252944   -0.136694
   9 Au:    0.213460   -0.127181
  10 Au:    0.095234   -0.045898
  11 Au:    0.188286   -0.044905
  12 Fe:   -2.343953    2.799022
Sum of atomic charges         :    0.0000000

LOEWDIN ATOMIC CHARGES AND SPIN POPULATIONS
-------------------------------------------
   0 Au:   -0.001003   -0.050024
   1 Au:    0.051435   -0.015728
   2 Au:   -0.004781   -0.063357
   3 Au:    0.033879   -0.077096
   4 Au:    0.052484   -0.003872
   5 Au:    0.040417   -0.085265
   6 Au:    0.065332   -0.046168
   7 Au:    0.137863   -0.150146
   8 Au:    0.057306   -0.099911
   9 Au:    0.092901   -0.103756
  10 Au:    0.066262   -0.049487
  11 Au:    0.060894   -0.067294
  12 Fe:   -0.652990    2.812104

  Mayer bond orders larger than 0.100000
B(  0-Au,  1-Au) :   0.2865 B(  0-Au,  3-Au) :   0.1160 B(  0-Au,  4-Au) :   0.3227
B(  0-Au,  7-Au) :   0.3133 B(  0-Au, 10-Au) :   0.1488 B(  0-Au, 12-Fe) :   0.5494
B(  1-Au,  2-Au) :   0.2891 B(  1-Au,  3-Au) :   0.4135 B(  1-Au,  4-Au) :   0.1719
B(  1-Au, 12-Fe) :   0.1143 B(  2-Au,  3-Au) :   0.1603 B(  2-Au,  4-Au) :   0.2706
B(  2-Au,  9-Au) :   0.3706 B(  2-Au, 10-Au) :   0.1276 B(  2-Au, 12-Fe) :   0.5389
B(  3-Au,  7-Au) :   0.1276 B(  3-Au, 11-Au) :   0.2826 B(  3-Au, 12-Fe) :   0.5699
B(  4-Au, 10-Au) :   0.3647 B(  4-Au, 12-Fe) :   0.1025 B(  5-Au,  6-Au) :   0.2484
B(  5-Au,  8-Au) :   0.2630 B(  5-Au,  9-Au) :   0.2842 B(  5-Au, 11-Au) :   0.2616
B(  5-Au, 12-Fe) :   0.1715 B(  6-Au,  8-Au) :   0.1628 B(  6-Au,  9-Au) :   0.1018
B(  6-Au, 10-Au) :   0.3058 B(  6-Au, 11-Au) :   0.1010 B(  6-Au, 12-Fe) :   0.5539
B(  7-Au,  8-Au) :   0.2532 B(  7-Au, 12-Fe) :   0.5301 B(  8-Au, 11-Au) :   0.1440
B(  8-Au, 12-Fe) :   0.5467 B(  9-Au, 12-Fe) :   0.6103 B( 10-Au, 12-Fe) :   0.6087
B( 11-Au, 12-Fe) :   0.5714

FINAL SINGLE POINT ENERGY     -2893.387168192402

DIPOLE MOMENT
-------------
                                X             Y             Z
Electronic contribution:    -13.39122      -4.18119     -11.32792
Nuclear contribution   :     13.35302       4.29991      11.38384
                        -----------------------------------------
Total Dipole Moment    :     -0.03819       0.11872       0.05592
                        -----------------------------------------
Magnitude (a.u.)       :      0.13667
Magnitude (Debye)      :      0.34740

Rotational constants in cm-1:     0.001839     0.001117     0.001001
Rotational constants in MHz :    55.124708    33.476668    30.004995

                             ****ORCA TERMINATED NORMALLY****
TOTAL RUN TIME: 0 days 0 hours 30 minutes 23 seconds 373 msec
