                         Program Version 5.0.3 -  RELEASE  -
|  1> !R2SCAN def2-TZVP VERYSLOWCONV
|  2> !KDIIS
|  3> %scf
|  4>   AutoTRAHIter 200
|  5>   maxiter 400
|  6> end
|  7>
|  8> %pal nprocs 6 end
|  9>
| 10> *xyzfile 0 5 pbe.xyz
| 11>
| 12> $new_job
| 13>
| 14> !R2SCAN def2-TZVP VERYSLOWCONV
| 15> !KDIIS
| 16> %scf
| 17>   AutoTRAHIter 200
| 18>   maxiter 400
| 19> end
| 20>
| 21>
| 22> %pal nprocs 6 end
| 23>
| 24> *xyzfile 0 3 pbe.xyz
| 25>
| 26>
| 27>
| 28>
| 29>
| 30>                          ****END OF INPUT****
 Total Charge           Charge          ....    0
 Multiplicity           Mult            ....    5
 Number of Electrons    NEL             ....  254
FINAL SINGLE POINT ENERGY     -2893.838887991030

CARTESIAN COORDINATES (ANGSTROEM)
---------------------------------
  Au     7.154456    5.719346   10.201053
  Au     5.411668    6.525784    8.158818
  Au     8.060921    6.764405    7.208150
  Au     6.855018    8.619266    9.161391
  Au     7.100215    4.182979    7.902725
  Au    11.919587    9.210122    9.488346
  Au    11.613728    6.402348    9.643917
  Au     7.827984    7.805347   11.804689
  Au    10.527083    8.175639   11.644060
  Au    10.383421    8.101746    7.457311
  Au     9.608414    4.802014    8.831469
  Au     9.182435    9.905404    9.728240
  Fe     9.154651    7.297531    9.568339

 Multiplicity           Mult            ....    3
 Number of Electrons    NEL             ....  254
 Basis Dimension        Dim             ....  525

ORBITAL ENERGIES
----------------
                 SPIN UP ORBITALS
  NO   OCC          E(Eh)            E(eV)
   0   1.0000    -255.632303     -6956.1086
   1   1.0000     -29.932461      -814.5037
   2   1.0000     -25.772444      -701.3039
   3   1.0000     -25.766147      -701.1325
   4   1.0000     -25.750375      -700.7033
   5   1.0000      -4.121047      -112.1394
   6   1.0000      -4.119294      -112.0917
   7   1.0000      -4.118030      -112.0573
   8   1.0000      -4.115532      -111.9893
   9   1.0000      -4.115322      -111.9836
  10   1.0000      -4.114287      -111.9554
  11   1.0000      -4.114047      -111.9489
  12   1.0000      -4.113467      -111.9331
  13   1.0000      -4.112254      -111.9001
  14   1.0000      -4.108256      -111.7913
  15   1.0000      -4.106601      -111.7463
  16   1.0000      -4.103961      -111.6745
  17   1.0000      -3.509858       -95.5081
  18   1.0000      -2.311634       -62.9028
  19   1.0000      -2.310295       -62.8663
  20   1.0000      -2.308400       -62.8148
  21   1.0000      -2.306992       -62.7764
  22   1.0000      -2.305618       -62.7391
  23   1.0000      -2.305460       -62.7347
  24   1.0000      -2.305304       -62.7305
  25   1.0000      -2.304537       -62.7096
  26   1.0000      -2.304093       -62.6976
  27   1.0000      -2.303726       -62.6876
  28   1.0000      -2.303704       -62.6870
  29   1.0000      -2.303423       -62.6793
  30   1.0000      -2.303010       -62.6681
  31   1.0000      -2.302068       -62.6424
  32   1.0000      -2.301276       -62.6209
  33   1.0000      -2.301026       -62.6141
  34   1.0000      -2.300810       -62.6082
  35   1.0000      -2.300349       -62.5957
  36   1.0000      -2.300213       -62.5920
  37   1.0000      -2.299265       -62.5662
  38   1.0000      -2.298643       -62.5493
  39   1.0000      -2.297654       -62.5224
  40   1.0000      -2.297254       -62.5115
  41   1.0000      -2.294831       -62.4455
  42   1.0000      -2.294289       -62.4308
  43   1.0000      -2.293832       -62.4183
  44   1.0000      -2.293654       -62.4135
  45   1.0000      -2.293491       -62.4091
  46   1.0000      -2.293358       -62.4054
  47   1.0000      -2.292926       -62.3937
  48   1.0000      -2.292421       -62.3799
  49   1.0000      -2.292290       -62.3764
  50   1.0000      -2.291959       -62.3674
  51   1.0000      -2.290912       -62.3389
  52   1.0000      -2.290372       -62.3242
  53   1.0000      -2.289070       -62.2888
  54   1.0000      -2.287773       -62.2535
  55   1.0000      -2.281151       -62.0733
  56   1.0000      -2.249451       -61.2107
  57   1.0000      -0.430104       -11.7037
  58   1.0000      -0.392996       -10.6940
  59   1.0000      -0.385321       -10.4851
  60   1.0000      -0.381900       -10.3920
  61   1.0000      -0.376994       -10.2585
  62   1.0000      -0.376415       -10.2428
  63   1.0000      -0.373840       -10.1727
  64   1.0000      -0.369959       -10.0671
  65   1.0000      -0.366410        -9.9705
  66   1.0000      -0.362672        -9.8688
  67   1.0000      -0.358659        -9.7596
  68   1.0000      -0.354817        -9.6551
  69   1.0000      -0.350789        -9.5455
  70   1.0000      -0.347948        -9.4681
  71   1.0000      -0.346165        -9.4196
  72   1.0000      -0.344887        -9.3849
  73   1.0000      -0.341482        -9.2922
  74   1.0000      -0.340897        -9.2763
  75   1.0000      -0.336981        -9.1697
  76   1.0000      -0.333456        -9.0738
  77   1.0000      -0.332104        -9.0370
  78   1.0000      -0.332066        -9.0360
  79   1.0000      -0.328115        -8.9285
  80   1.0000      -0.325172        -8.8484
  81   1.0000      -0.322708        -8.7813
  82   1.0000      -0.321053        -8.7363
  83   1.0000      -0.316036        -8.5998
  84   1.0000      -0.315274        -8.5790
  85   1.0000      -0.312842        -8.5129
  86   1.0000      -0.304234        -8.2786
  87   1.0000      -0.302742        -8.2380
  88   1.0000      -0.300414        -8.1747
  89   1.0000      -0.296971        -8.0810
  90   1.0000      -0.295099        -8.0300
  91   1.0000      -0.294481        -8.0132
  92   1.0000      -0.292837        -7.9685
  93   1.0000      -0.290484        -7.9045
  94   1.0000      -0.288698        -7.8559
  95   1.0000      -0.285215        -7.7611
  96   1.0000      -0.284910        -7.7528
  97   1.0000      -0.281619        -7.6632
  98   1.0000      -0.280992        -7.6462
  99   1.0000      -0.279489        -7.6053
 100   1.0000      -0.277860        -7.5610
 101   1.0000      -0.276468        -7.5231
 102   1.0000      -0.274625        -7.4729
 103   1.0000      -0.274031        -7.4568
 104   1.0000      -0.272822        -7.4239
 105   1.0000      -0.271728        -7.3941
 106   1.0000      -0.270582        -7.3629
 107   1.0000      -0.269239        -7.3264
 108   1.0000      -0.265029        -7.2118
 109   1.0000      -0.264239        -7.1903
 110   1.0000      -0.263377        -7.1669
 111   1.0000      -0.262780        -7.1506
 112   1.0000      -0.261052        -7.1036
 113   1.0000      -0.258606        -7.0370
 114   1.0000      -0.257205        -6.9989
 115   1.0000      -0.256304        -6.9744
 116   1.0000      -0.254420        -6.9231
 117   1.0000      -0.253925        -6.9096
 118   1.0000      -0.249723        -6.7953
 119   1.0000      -0.248627        -6.7655
 120   1.0000      -0.248472        -6.7613
 121   1.0000      -0.244798        -6.6613
 122   1.0000      -0.244159        -6.6439
 123   1.0000      -0.240845        -6.5537
 124   1.0000      -0.238531        -6.4907
 125   1.0000      -0.229672        -6.2497
 126   1.0000      -0.216216        -5.8835
 127   1.0000      -0.196916        -5.3583
 128   0.0000      -0.175457        -4.7744
 129   0.0000      -0.173253        -4.7145
 130   0.0000      -0.138552        -3.7702
 131   0.0000      -0.126872        -3.4524
 132   0.0000      -0.122275        -3.3273

                 SPIN DOWN ORBITALS
  NO   OCC          E(Eh)            E(eV)
   0   1.0000    -255.631311     -6956.0816
   1   1.0000     -29.856620      -812.4399
   2   1.0000     -25.709927      -699.6027
   3   1.0000     -25.705989      -699.4955
   4   1.0000     -25.699487      -699.3186
   5   1.0000      -4.121012      -112.1384
   6   1.0000      -4.119352      -112.0933
   7   1.0000      -4.118476      -112.0694
   8   1.0000      -4.116569      -112.0175
   9   1.0000      -4.115931      -112.0002
  10   1.0000      -4.114375      -111.9578
  11   1.0000      -4.114033      -111.9485
  12   1.0000      -4.113107      -111.9233
  13   1.0000      -4.112208      -111.8989
  14   1.0000      -4.109228      -111.8178
  15   1.0000      -4.107212      -111.7629
  16   1.0000      -4.104678      -111.6940
  17   1.0000      -3.343575       -90.9833
  18   1.0000      -2.311200       -62.8909
  19   1.0000      -2.309670       -62.8493
  20   1.0000      -2.308415       -62.8152
  21   1.0000      -2.306659       -62.7674
  22   1.0000      -2.305885       -62.7463
  23   1.0000      -2.305157       -62.7265
  24   1.0000      -2.304901       -62.7195
  25   1.0000      -2.304395       -62.7058
  26   1.0000      -2.303977       -62.6944
  27   1.0000      -2.303674       -62.6861
  28   1.0000      -2.303464       -62.6804
  29   1.0000      -2.302411       -62.6518
  30   1.0000      -2.302315       -62.6492
  31   1.0000      -2.301986       -62.6402
  32   1.0000      -2.301409       -62.6245
  33   1.0000      -2.301068       -62.6153
  34   1.0000      -2.300764       -62.6070
  35   1.0000      -2.300324       -62.5950
  36   1.0000      -2.300247       -62.5929
  37   1.0000      -2.299272       -62.5664
  38   1.0000      -2.298838       -62.5546
  39   1.0000      -2.298497       -62.5453
  40   1.0000      -2.298012       -62.5321
  41   1.0000      -2.295702       -62.4692
  42   1.0000      -2.295463       -62.4627
  43   1.0000      -2.294591       -62.4390
  44   1.0000      -2.294418       -62.4343
  45   1.0000      -2.294232       -62.4292
  46   1.0000      -2.293727       -62.4155
  47   1.0000      -2.293273       -62.4031
  48   1.0000      -2.292835       -62.3912
  49   1.0000      -2.292399       -62.3794
  50   1.0000      -2.291691       -62.3601
  51   1.0000      -2.291256       -62.3482
  52   1.0000      -2.289743       -62.3071
  53   1.0000      -2.288855       -62.2829
  54   1.0000      -2.116997       -57.6064
  55   1.0000      -2.111152       -57.4474
  56   1.0000      -2.104794       -57.2743
  57   1.0000      -0.427723       -11.6389
  58   1.0000      -0.393817       -10.7163
  59   1.0000      -0.381528       -10.3819
  60   1.0000      -0.376932       -10.2569
  61   1.0000      -0.375211       -10.2100
  62   1.0000      -0.369640       -10.0584
  63   1.0000      -0.366731        -9.9793
  64   1.0000      -0.363994        -9.9048
  65   1.0000      -0.359345        -9.7783
  66   1.0000      -0.356192        -9.6925
  67   1.0000      -0.354453        -9.6452
  68   1.0000      -0.353004        -9.6057
  69   1.0000      -0.347368        -9.4524
  70   1.0000      -0.346287        -9.4229
  71   1.0000      -0.344615        -9.3774
  72   1.0000      -0.342216        -9.3122
  73   1.0000      -0.339280        -9.2323
  74   1.0000      -0.337682        -9.1888
  75   1.0000      -0.334327        -9.0975
  76   1.0000      -0.331900        -9.0315
  77   1.0000      -0.330428        -8.9914
  78   1.0000      -0.328955        -8.9513
  79   1.0000      -0.327512        -8.9120
  80   1.0000      -0.324279        -8.8241
  81   1.0000      -0.321214        -8.7407
  82   1.0000      -0.318642        -8.6707
  83   1.0000      -0.316591        -8.6149
  84   1.0000      -0.310407        -8.4466
  85   1.0000      -0.308278        -8.3887
  86   1.0000      -0.303449        -8.2573
  87   1.0000      -0.302623        -8.2348
  88   1.0000      -0.299785        -8.1576
  89   1.0000      -0.296906        -8.0792
  90   1.0000      -0.294018        -8.0006
  91   1.0000      -0.291911        -7.9433
  92   1.0000      -0.288774        -7.8579
  93   1.0000      -0.288054        -7.8384
  94   1.0000      -0.286355        -7.7921
  95   1.0000      -0.284188        -7.7331
  96   1.0000      -0.282876        -7.6975
  97   1.0000      -0.281423        -7.6579
  98   1.0000      -0.280675        -7.6376
  99   1.0000      -0.278955        -7.5908
 100   1.0000      -0.276510        -7.5242
 101   1.0000      -0.275995        -7.5102
 102   1.0000      -0.275115        -7.4862
 103   1.0000      -0.274624        -7.4729
 104   1.0000      -0.273333        -7.4378
 105   1.0000      -0.271116        -7.3774
 106   1.0000      -0.269360        -7.3297
 107   1.0000      -0.266272        -7.2456
 108   1.0000      -0.265586        -7.2270
 109   1.0000      -0.264398        -7.1946
 110   1.0000      -0.262855        -7.1527
 111   1.0000      -0.259754        -7.0683
 112   1.0000      -0.258167        -7.0251
 113   1.0000      -0.257281        -7.0010
 114   1.0000      -0.255355        -6.9486
 115   1.0000      -0.253499        -6.8981
 116   1.0000      -0.250810        -6.8249
 117   1.0000      -0.249175        -6.7804
 118   1.0000      -0.245762        -6.6875
 119   1.0000      -0.243686        -6.6310
 120   1.0000      -0.236480        -6.4350
 121   1.0000      -0.222535        -6.0555
 122   1.0000      -0.205105        -5.5812
 123   1.0000      -0.200131        -5.4458
 124   1.0000      -0.197684        -5.3793
 125   1.0000      -0.175904        -4.7866
 126   0.0000      -0.153563        -4.1787
 127   0.0000      -0.150606        -4.0982
 128   0.0000      -0.137598        -3.7442
 129   0.0000      -0.130434        -3.5493
 130   0.0000      -0.129280        -3.5179

MULLIKEN ATOMIC CHARGES AND SPIN POPULATIONS
--------------------------------------------
   0 Au:    0.082978   -0.139046
   1 Au:    0.226269   -0.004671
   2 Au:    0.044439   -0.136361
   3 Au:    0.057259   -0.101724
   4 Au:    0.275650    0.008775
   5 Au:    0.251635   -0.103802
   6 Au:    0.174181   -0.008936
   7 Au:    0.327832   -0.128819
   8 Au:    0.233463   -0.175220
   9 Au:    0.199448   -0.141916
  10 Au:    0.072850   -0.058047
  11 Au:    0.161054   -0.055825
  12 Fe:   -2.107059    3.045592
Sum of atomic charges         :    0.0000000

LOEWDIN ATOMIC CHARGES AND SPIN POPULATIONS
-------------------------------------------
   0 Au:   -0.010717   -0.084174
   1 Au:    0.041903   -0.031742
   2 Au:   -0.011762   -0.085165
   3 Au:    0.029430   -0.090750
   4 Au:    0.044939   -0.021912
   5 Au:    0.033214   -0.105169
   6 Au:    0.056749   -0.056975
   7 Au:    0.135353   -0.166195
   8 Au:    0.050032   -0.123834
   9 Au:    0.088550   -0.113865
  10 Au:    0.061078   -0.059932
  11 Au:    0.053256   -0.080095
  12 Fe:   -0.572024    3.019807

  Mayer bond orders larger than 0.100000
B(  0-Au,  1-Au) :   0.2738 B(  0-Au,  4-Au) :   0.3121 B(  0-Au,  7-Au) :   0.3160
B(  0-Au, 10-Au) :   0.1303 B(  0-Au, 12-Fe) :   0.5128 B(  1-Au,  2-Au) :   0.2724
B(  1-Au,  3-Au) :   0.4149 B(  1-Au,  4-Au) :   0.1552 B(  1-Au, 12-Fe) :   0.1023
B(  2-Au,  3-Au) :   0.1435 B(  2-Au,  4-Au) :   0.2589 B(  2-Au,  9-Au) :   0.3735
B(  2-Au, 10-Au) :   0.1088 B(  2-Au, 12-Fe) :   0.5179 B(  3-Au,  7-Au) :   0.1085
B(  3-Au, 11-Au) :   0.2817 B(  3-Au, 12-Fe) :   0.5468 B(  4-Au, 10-Au) :   0.3653
B(  5-Au,  6-Au) :   0.2325 B(  5-Au,  8-Au) :   0.2495 B(  5-Au,  9-Au) :   0.2711
B(  5-Au, 11-Au) :   0.2427 B(  5-Au, 12-Fe) :   0.1423 B(  6-Au,  8-Au) :   0.1419
B(  6-Au, 10-Au) :   0.3040 B(  6-Au, 12-Fe) :   0.5425 B(  7-Au,  8-Au) :   0.2496
B(  7-Au, 12-Fe) :   0.5298 B(  8-Au, 11-Au) :   0.1304 B(  8-Au, 12-Fe) :   0.5214
B(  9-Au, 12-Fe) :   0.6002 B( 10-Au, 12-Fe) :   0.6097 B( 11-Au, 12-Fe) :   0.5537

FINAL SINGLE POINT ENERGY     -2893.830358331365

DIPOLE MOMENT
-------------
                                X             Y             Z
Electronic contribution:    -13.33277      -4.13273     -11.28542
Nuclear contribution   :     13.35302       4.29991      11.38384
                        -----------------------------------------
Total Dipole Moment    :      0.02025       0.16718       0.09843
                        -----------------------------------------
Magnitude (a.u.)       :      0.19506
Magnitude (Debye)      :      0.49580

Rotational constants in cm-1:     0.001839     0.001117     0.001001
Rotational constants in MHz :    55.124708    33.476668    30.004995

                             ****ORCA TERMINATED NORMALLY****
TOTAL RUN TIME: 0 days 0 hours 47 minutes 43 seconds 166 msec
